 Entering Gaussian System, Link 0=g09
 Initial command:
 /scratch/spipolo/g09_parma/g09A02/g09/l1.exe /s3_home/spipolo/GAUSS_SCRDIR/Gau-4883.inp -scrdir=/s3_home/spipolo/GAUSS_SCRDIR/
 Entering Link 1 = /scratch/spipolo/g09_parma/g09A02/g09/l1.exe PID=      4884.
  
 Copyright (c) 1988,1990,1992,1993,1995,1998,2003,2009, Gaussian, Inc.
                  All Rights Reserved.
  
 This is part of the Gaussian(R) 09 program.  It is based on
 the Gaussian(R) 03 system (copyright 2003, Gaussian, Inc.),
 the Gaussian(R) 98 system (copyright 1998, Gaussian, Inc.),
 the Gaussian(R) 94 system (copyright 1995, Gaussian, Inc.),
 the Gaussian 92(TM) system (copyright 1992, Gaussian, Inc.),
 the Gaussian 90(TM) system (copyright 1990, Gaussian, Inc.),
 the Gaussian 88(TM) system (copyright 1988, Gaussian, Inc.),
 the Gaussian 86(TM) system (copyright 1986, Carnegie Mellon
 University), and the Gaussian 82(TM) system (copyright 1983,
 Carnegie Mellon University). Gaussian is a federally registered
 trademark of Gaussian, Inc.
  
 This software contains proprietary and confidential information,
 including trade secrets, belonging to Gaussian, Inc.
  
 This software is provided under written license and may be
 used, copied, transmitted, or stored only in accord with that
 written license.
  
 The following legend is applicable only to US Government
 contracts under FAR:
  
                    RESTRICTED RIGHTS LEGEND
  
 Use, reproduction and disclosure by the US Government is
 subject to restrictions as set forth in subparagraphs (a)
 and (c) of the Commercial Computer Software - Restricted
 Rights clause in FAR 52.227-19.
  
 Gaussian, Inc.
 340 Quinnipiac St., Bldg. 40, Wallingford CT 06492
  
  
 ---------------------------------------------------------------
 Warning -- This program may not be used in any manner that
 competes with the business of Gaussian, Inc. or will provide
 assistance to any competitor of Gaussian, Inc.  The licensee
 of this program is prohibited from giving any competitor of
 Gaussian, Inc. access to this program.  By using this program,
 the user acknowledges that Gaussian, Inc. is engaged in the
 business of creating and licensing software in the field of
 computational chemistry and represents and warrants to the
 licensee that it is not a competitor of Gaussian, Inc. and that
 it will not use this program in any manner prohibited above.
 ---------------------------------------------------------------
  

 Cite this work as:
 Gaussian 09, Revision A.02,
 M. J. Frisch, G. W. Trucks, H. B. Schlegel, G. E. Scuseria, 
 M. A. Robb, J. R. Cheeseman, G. Scalmani, V. Barone, B. Mennucci, 
 G. A. Petersson, H. Nakatsuji, M. Caricato, X. Li, H. P. Hratchian, 
 A. F. Izmaylov, J. Bloino, G. Zheng, J. L. Sonnenberg, M. Hada, 
 M. Ehara, K. Toyota, R. Fukuda, J. Hasegawa, M. Ishida, T. Nakajima, 
 Y. Honda, O. Kitao, H. Nakai, T. Vreven, J. A. Montgomery, Jr., 
 J. E. Peralta, F. Ogliaro, M. Bearpark, J. J. Heyd, E. Brothers, 
 K. N. Kudin, V. N. Staroverov, R. Kobayashi, J. Normand, 
 K. Raghavachari, A. Rendell, J. C. Burant, S. S. Iyengar, J. Tomasi, 
 M. Cossi, N. Rega, J. M. Millam, M. Klene, J. E. Knox, J. B. Cross, 
 V. Bakken, C. Adamo, J. Jaramillo, R. Gomperts, R. E. Stratmann, 
 O. Yazyev, A. J. Austin, R. Cammi, C. Pomelli, J. W. Ochterski, 
 R. L. Martin, K. Morokuma, V. G. Zakrzewski, G. A. Voth, 
 P. Salvador, J. J. Dannenberg, S. Dapprich, A. D. Daniels, 
 O. Farkas, J. B. Foresman, J. V. Ortiz, J. Cioslowski, 
 and D. J. Fox, Gaussian, Inc., Wallingford CT, 2009.
 
 ******************************************
 Gaussian 09:  AM64L-G09RevA.02 11-Jun-2009
                23-Jul-2016 
 ******************************************
 %subst l914 ../g09_cisrho/l914/
 %mem=60MW
 %chk=LiCN.chk
 %nproc=1
 Will use up to    1 processors via shared memory.
 ----------------------------------------------------------------------
 #p cis=(root=1,nstates=20,alltransitiondensities)/6-31G** density=rhoc
 i iop(9/33=1)
 ----------------------------------------------------------------------
 1/30=1,38=1/1;
 2/12=2,17=6,18=5,40=1/2;
 3/5=1,6=6,7=101,11=9,16=1,25=1,30=1,71=1/1,2,8,3;
 4//1;
 5/5=2,38=5/2;
 8/6=1,10=2,107=1,108=20/1,4;
 9/8=1,15=1,33=1,41=20,42=3,44=3/14;
 10/5=4,13=10/2;
 6/7=2,8=2,9=2,10=2,22=5/1;
 99/5=1,9=1/99;
 Leave Link    1 at Sat Jul 23 16:01:11 2016, MaxMem=   62914560 cpu:       0.0
 (Enter /scratch/spipolo/g09_parma/g09A02/g09/l101.exe)
 -------------
 LiCN 6-31G(d)
 -------------
 Symbolic Z-matrix:
 Charge =  0 Multiplicity = 1
 Li                    0.        0.       -2.08551 
 C                     0.        0.       -0.13651 
 N                     0.        0.        1.01079 
 
 NAtoms=      3 NQM=      3 NQMF=      0 NMic=      0 NMicF=      0 NTot=      3.
                    Isotopes and Nuclear Properties:
 (Nuclear quadrupole moments (NQMom) in fm**2, nuclear magnetic moments (NMagM)
  in nuclear magnetons)

  Atom         1           2           3
 IAtWgt=           7          12          14
 AtmWgt=   7.0160045  12.0000000  14.0030740
 NucSpn=           3           0           2
 AtZEff=   0.0000000   0.0000000   0.0000000
 NQMom=   -4.0100000   0.0000000   2.0440000
 NMagM=    3.2564240   0.0000000   0.4037610
 Leave Link  101 at Sat Jul 23 16:01:11 2016, MaxMem=   62914560 cpu:       0.0
 (Enter /scratch/spipolo/g09_parma/g09A02/g09/l202.exe)
                          Input orientation:                          
 ---------------------------------------------------------------------
 Center     Atomic      Atomic             Coordinates (Angstroms)
 Number     Number       Type             X           Y           Z
 ---------------------------------------------------------------------
      1          3           0        0.000000    0.000000   -2.085506
      2          6           0        0.000000    0.000000   -0.136506
      3          7           0        0.000000    0.000000    1.010794
 ---------------------------------------------------------------------
                    Distance matrix (angstroms):
                    1          2          3
     1  Li   0.000000
     2  C    1.949000   0.000000
     3  N    3.096300   1.147300   0.000000
 Stoichiometry    CLiN
 Framework group  C*V[C*(LiCN)]
 Deg. of freedom     2
 Full point group                 C*V     NOp   4
 Largest Abelian subgroup         C2V     NOp   4
 Largest concise Abelian subgroup C1      NOp   1
                         Standard orientation:                         
 ---------------------------------------------------------------------
 Center     Atomic      Atomic             Coordinates (Angstroms)
 Number     Number       Type             X           Y           Z
 ---------------------------------------------------------------------
      1          3           0        0.000000    0.000000   -2.085506
      2          6           0        0.000000    0.000000   -0.136506
      3          7           0        0.000000    0.000000    1.010794
 ---------------------------------------------------------------------
 Rotational constants (GHZ):      0.0000000     11.2531524     11.2531524
 Leave Link  202 at Sat Jul 23 16:01:11 2016, MaxMem=   62914560 cpu:       0.0
 (Enter /scratch/spipolo/g09_parma/g09A02/g09/l301.exe)
 Standard basis: 6-31G(d,p) (6D, 7F)
 Ernie: Thresh=  0.10000D-02 Tol=  0.10000D-05 Strict=F.
 There are    24 symmetry adapted basis functions of A1  symmetry.
 There are     3 symmetry adapted basis functions of A2  symmetry.
 There are     9 symmetry adapted basis functions of B1  symmetry.
 There are     9 symmetry adapted basis functions of B2  symmetry.
 Integral buffers will be    131072 words long.
 Raffenetti 1 integral format.
 Two-electron integral symmetry is turned on.
    45 basis functions,    84 primitive gaussians,    45 cartesian basis functions
     8 alpha electrons        8 beta electrons
       nuclear repulsion energy        27.8482054219 Hartrees.
 IExCor=    0 DFT=F Ex=HF Corr=None ExCW=0 ScaHFX=  1.000000
 ScaDFX=  1.000000  1.000000  1.000000  1.000000 ScalE2=  1.000000  1.000000
 IRadAn=      0 IRanWt=     -1 IRanGd=            0 ICorTp=0
 NAtoms=    3 NActive=    3 NUniq=    3 SFac= 7.50D-01 NAtFMM=   80 NAOKFM=F Big=F
 Leave Link  301 at Sat Jul 23 16:01:12 2016, MaxMem=   62914560 cpu:       0.1
 (Enter /scratch/spipolo/g09_parma/g09A02/g09/l302.exe)
 NPDir=0 NMtPBC=     1 NCelOv=     1 NCel=       1 NClECP=     1 NCelD=      1
         NCelK=      1 NCelE2=     1 NClLst=     1 CellRange=     0.0.
 One-electron integrals computed using PRISM.
 NBasis=    45 RedAO= T  NBF=    24     3     9     9
 NBsUse=    45 1.00D-06 NBFU=    24     3     9     9
 Leave Link  302 at Sat Jul 23 16:01:12 2016, MaxMem=   62914560 cpu:       0.1
 (Enter /scratch/spipolo/g09_parma/g09A02/g09/l308.exe)
 Leave Link  308 at Sat Jul 23 16:01:12 2016, MaxMem=   62914560 cpu:       0.0
 (Enter /scratch/spipolo/g09_parma/g09A02/g09/l303.exe)
 DipDrv:  MaxL=1.
 Leave Link  303 at Sat Jul 23 16:01:13 2016, MaxMem=   62914560 cpu:       0.0
 (Enter /scratch/spipolo/g09_parma/g09A02/g09/l401.exe)
 Harris functional with IExCor=  205 diagonalized for initial guess.
 ExpMin= 3.60D-02 ExpMax= 4.17D+03 ExpMxC= 6.27D+02 IAcc=3 IRadAn=         0 AccDes= 0.00D+00
 HarFok:  IExCor=  205 AccDes= 0.00D+00 IRadAn=         0 IDoV= 1
 ScaDFX=  1.000000  1.000000  1.000000  1.000000
 FoFCou: FMM=F IPFlag=           0 FMFlag=      100000 FMFlg1=           0
         NFxFlg=           0 DoJE=T BraDBF=F KetDBF=T FulRan=T
         Omega=  0.000000  0.000000  1.000000  0.000000  0.000000 ICntrl=     500 IOpCl=  0
         NMat0=    1 NMatS0=    1 NMatT0=    0 NMatD0=    1 NMtDS0=    0 NMtDT0=    0
         I1Cent=           4 NGrid=           0.
 Petite list used in FoFCou.
 Harris En= -99.8577834540051    
 Initial guess orbital symmetries:
       Occupied  (SG) (SG) (SG) (SG) (SG) (PI) (PI) (SG)
       Virtual   (PI) (PI) (SG) (PI) (PI) (SG) (PI) (PI) (SG) (SG)
                 (SG) (PI) (PI) (DLTA) (DLTA) (SG) (PI) (PI) (SG)
                 (SG) (PI) (PI) (SG) (SG) (SG) (DLTA) (DLTA) (PI)
                 (PI) (DLTA) (DLTA) (SG) (PI) (PI) (SG) (SG) (SG)
 The electronic state of the initial guess is 1-SG.
 Leave Link  401 at Sat Jul 23 16:01:13 2016, MaxMem=   62914560 cpu:       0.2
 (Enter /scratch/spipolo/g09_parma/g09A02/g09/l502.exe)
 Closed shell SCF:
 Requested convergence on RMS density matrix=1.00D-08 within 128 cycles.
 Requested convergence on MAX density matrix=1.00D-06.
 Requested convergence on             energy=1.00D-06.
 No special actions if energy rises.
 Using DIIS extrapolation, IDIIS=  1040.
 Integral symmetry usage will be decided dynamically.
 Keep R1 ints in memory in canonical form, NReq=1381004.
 IEnd=       24860 IEndB=       24860 NGot=    62914560 MDV=    62372253
 LenX=    62372253 LenY=    62369787
 Symmetry not used in FoFDir.
 MinBra= 0 MaxBra= 2 Meth= 1.
 IRaf=       0 NMat=   1 IRICut=       1 DoRegI=T DoRafI=F ISym2E= 0 JSym2E=0.

 Cycle   1  Pass 1  IDiag  1:
 E= -99.6587664665668    
 DIIS: error= 5.72D-02 at cycle   1 NSaved=   1.
 NSaved= 1 IEnMin= 1 EnMin= -99.6587664665668     IErMin= 1 ErrMin= 5.72D-02
 ErrMax= 5.72D-02 EMaxC= 1.00D-01 BMatC= 1.43D-01 BMatP= 1.43D-01
 IDIUse=3 WtCom= 4.28D-01 WtEn= 5.72D-01
 Coeff-Com:  0.100D+01
 Coeff-En:   0.100D+01
 Coeff:      0.100D+01
 Gap=     0.241 Goal=   None    Shift=    0.000
 GapD=    0.241 DampG=1.000 DampE=0.500 DampFc=0.5000 IDamp=-1.
 Damping current iteration by 5.00D-01
 RMSDP=1.03D-02 MaxDP=1.03D-01              OVMax= 1.40D-01

 Cycle   2  Pass 1  IDiag  1:
 E= -99.7185927682572     Delta-E=       -0.059826301690 Rises=F Damp=T
 DIIS: error= 3.03D-02 at cycle   2 NSaved=   2.
 NSaved= 2 IEnMin= 2 EnMin= -99.7185927682572     IErMin= 2 ErrMin= 3.03D-02
 ErrMax= 3.03D-02 EMaxC= 1.00D-01 BMatC= 3.08D-02 BMatP= 1.43D-01
 IDIUse=3 WtCom= 6.97D-01 WtEn= 3.03D-01
 Coeff-Com: -0.667D+00 0.167D+01
 Coeff-En:   0.000D+00 0.100D+01
 Coeff:     -0.465D+00 0.146D+01
 Gap=     0.374 Goal=   None    Shift=    0.000
 RMSDP=4.34D-03 MaxDP=5.72D-02 DE=-5.98D-02 OVMax= 4.05D-02

 Cycle   3  Pass 1  IDiag  1:
 E= -99.7716704336844     Delta-E=       -0.053077665427 Rises=F Damp=F
 DIIS: error= 5.02D-03 at cycle   3 NSaved=   3.
 NSaved= 3 IEnMin= 3 EnMin= -99.7716704336844     IErMin= 3 ErrMin= 5.02D-03
 ErrMax= 5.02D-03 EMaxC= 1.00D-01 BMatC= 9.18D-04 BMatP= 3.08D-02
 IDIUse=3 WtCom= 9.50D-01 WtEn= 5.02D-02
 Coeff-Com: -0.131D+00 0.260D+00 0.871D+00
 Coeff-En:   0.000D+00 0.000D+00 0.100D+01
 Coeff:     -0.125D+00 0.247D+00 0.878D+00
 Gap=     0.378 Goal=   None    Shift=    0.000
 RMSDP=7.28D-04 MaxDP=8.69D-03 DE=-5.31D-02 OVMax= 1.49D-02

 Cycle   4  Pass 1  IDiag  1:
 E= -99.7722736540622     Delta-E=       -0.000603220378 Rises=F Damp=F
 DIIS: error= 2.40D-03 at cycle   4 NSaved=   4.
 NSaved= 4 IEnMin= 4 EnMin= -99.7722736540622     IErMin= 4 ErrMin= 2.40D-03
 ErrMax= 2.40D-03 EMaxC= 1.00D-01 BMatC= 2.56D-04 BMatP= 9.18D-04
 IDIUse=3 WtCom= 9.76D-01 WtEn= 2.40D-02
 Coeff-Com:  0.479D-02-0.286D-01 0.345D+00 0.678D+00
 Coeff-En:   0.000D+00 0.000D+00 0.113D+00 0.887D+00
 Coeff:      0.468D-02-0.279D-01 0.340D+00 0.683D+00
 Gap=     0.376 Goal=   None    Shift=    0.000
 RMSDP=2.39D-04 MaxDP=2.81D-03 DE=-6.03D-04 OVMax= 4.65D-03

 Cycle   5  Pass 1  IDiag  1:
 E= -99.7724953603511     Delta-E=       -0.000221706289 Rises=F Damp=F
 DIIS: error= 1.73D-04 at cycle   5 NSaved=   5.
 NSaved= 5 IEnMin= 5 EnMin= -99.7724953603511     IErMin= 5 ErrMin= 1.73D-04
 ErrMax= 1.73D-04 EMaxC= 1.00D-01 BMatC= 1.32D-06 BMatP= 2.56D-04
 IDIUse=3 WtCom= 9.98D-01 WtEn= 1.73D-03
 Coeff-Com:  0.440D-02-0.322D-02-0.111D+00-0.178D+00 0.129D+01
 Coeff-En:   0.000D+00 0.000D+00 0.000D+00 0.000D+00 0.100D+01
 Coeff:      0.439D-02-0.321D-02-0.111D+00-0.178D+00 0.129D+01
 Gap=     0.377 Goal=   None    Shift=    0.000
 RMSDP=5.58D-05 MaxDP=7.11D-04 DE=-2.22D-04 OVMax= 8.55D-04

 Cycle   6  Pass 1  IDiag  1:
 E= -99.7724983510471     Delta-E=       -0.000002990696 Rises=F Damp=F
 DIIS: error= 2.74D-05 at cycle   6 NSaved=   6.
 NSaved= 6 IEnMin= 6 EnMin= -99.7724983510471     IErMin= 6 ErrMin= 2.74D-05
 ErrMax= 2.74D-05 EMaxC= 1.00D-01 BMatC= 3.08D-08 BMatP= 1.32D-06
 IDIUse=1 WtCom= 1.00D+00 WtEn= 0.00D+00
 Coeff-Com: -0.698D-03 0.806D-03 0.123D-01 0.137D-01-0.236D+00 0.121D+01
 Coeff:     -0.698D-03 0.806D-03 0.123D-01 0.137D-01-0.236D+00 0.121D+01
 Gap=     0.377 Goal=   None    Shift=    0.000
 RMSDP=9.91D-06 MaxDP=9.57D-05 DE=-2.99D-06 OVMax= 1.78D-04

 Cycle   7  Pass 1  IDiag  1:
 E= -99.7724984408558     Delta-E=       -0.000000089809 Rises=F Damp=F
 DIIS: error= 4.94D-06 at cycle   7 NSaved=   7.
 NSaved= 7 IEnMin= 7 EnMin= -99.7724984408558     IErMin= 7 ErrMin= 4.94D-06
 ErrMax= 4.94D-06 EMaxC= 1.00D-01 BMatC= 1.39D-09 BMatP= 3.08D-08
 IDIUse=1 WtCom= 1.00D+00 WtEn= 0.00D+00
 Coeff-Com:  0.634D-04-0.101D-03 0.171D-04-0.130D-04 0.276D-01-0.324D+00
 Coeff-Com:  0.130D+01
 Coeff:      0.634D-04-0.101D-03 0.171D-04-0.130D-04 0.276D-01-0.324D+00
 Coeff:      0.130D+01
 Gap=     0.377 Goal=   None    Shift=    0.000
 RMSDP=1.97D-06 MaxDP=2.04D-05 DE=-8.98D-08 OVMax= 4.19D-05

 Cycle   8  Pass 1  IDiag  1:
 E= -99.7724984445487     Delta-E=       -0.000000003693 Rises=F Damp=F
 DIIS: error= 9.39D-07 at cycle   8 NSaved=   8.
 NSaved= 8 IEnMin= 8 EnMin= -99.7724984445487     IErMin= 8 ErrMin= 9.39D-07
 ErrMax= 9.39D-07 EMaxC= 1.00D-01 BMatC= 3.83D-11 BMatP= 1.39D-09
 IDIUse=1 WtCom= 1.00D+00 WtEn= 0.00D+00
 Coeff-Com:  0.239D-04-0.245D-04-0.594D-03-0.943D-03 0.852D-03 0.691D-01
 Coeff-Com: -0.437D+00 0.137D+01
 Coeff:      0.239D-04-0.245D-04-0.594D-03-0.943D-03 0.852D-03 0.691D-01
 Coeff:     -0.437D+00 0.137D+01
 Gap=     0.377 Goal=   None    Shift=    0.000
 RMSDP=4.22D-07 MaxDP=5.47D-06 DE=-3.69D-09 OVMax= 7.74D-06

 Cycle   9  Pass 1  IDiag  1:
 E= -99.7724984446472     Delta-E=       -0.000000000099 Rises=F Damp=F
 DIIS: error= 8.69D-08 at cycle   9 NSaved=   9.
 NSaved= 9 IEnMin= 9 EnMin= -99.7724984446472     IErMin= 9 ErrMin= 8.69D-08
 ErrMax= 8.69D-08 EMaxC= 1.00D-01 BMatC= 3.63D-13 BMatP= 3.83D-11
 IDIUse=1 WtCom= 1.00D+00 WtEn= 0.00D+00
 Coeff-Com: -0.391D-05 0.346D-05 0.108D-03 0.157D-03-0.500D-03-0.811D-02
 Coeff-Com:  0.626D-01-0.272D+00 0.122D+01
 Coeff:     -0.391D-05 0.346D-05 0.108D-03 0.157D-03-0.500D-03-0.811D-02
 Coeff:      0.626D-01-0.272D+00 0.122D+01
 Gap=     0.377 Goal=   None    Shift=    0.000
 RMSDP=4.91D-08 MaxDP=7.28D-07 DE=-9.85D-11 OVMax= 7.32D-07

 Cycle  10  Pass 1  IDiag  1:
 E= -99.7724984446482     Delta-E=       -0.000000000001 Rises=F Damp=F
 DIIS: error= 8.71D-09 at cycle  10 NSaved=  10.
 NSaved=10 IEnMin=10 EnMin= -99.7724984446482     IErMin=10 ErrMin= 8.71D-09
 ErrMax= 8.71D-09 EMaxC= 1.00D-01 BMatC= 2.31D-15 BMatP= 3.63D-13
 IDIUse=1 WtCom= 1.00D+00 WtEn= 0.00D+00
 Coeff-Com:  0.567D-06-0.500D-06-0.141D-04-0.201D-04 0.106D-03 0.606D-03
 Coeff-Com: -0.617D-02 0.319D-01-0.201D+00 0.118D+01
 Coeff:      0.567D-06-0.500D-06-0.141D-04-0.201D-04 0.106D-03 0.606D-03
 Coeff:     -0.617D-02 0.319D-01-0.201D+00 0.118D+01
 Gap=     0.377 Goal=   None    Shift=    0.000
 RMSDP=3.46D-09 MaxDP=4.07D-08 DE=-9.66D-13 OVMax= 5.91D-08

 SCF Done:  E(RHF) =  -99.7724984446     A.U. after   10 cycles
             Convg  =    0.3461D-08             -V/T =  2.0017
 KE= 9.960347111582D+01 PE=-2.907788733249D+02 EE= 6.355469834250D+01
 Leave Link  502 at Sat Jul 23 16:01:14 2016, MaxMem=   62914560 cpu:       0.2
 (Enter /scratch/spipolo/g09_parma/g09A02/g09/l801.exe)
 ExpMin= 3.60D-02 ExpMax= 4.17D+03 ExpMxC= 6.27D+02 IAcc=3 IRadAn=         5 AccDes= 0.00D+00
 HarFok:  IExCor=  205 AccDes= 0.00D+00 IRadAn=         5 IDoV=-2
 ScaDFX=  1.000000  1.000000  1.000000  1.000000
 Largest valence mixing into a core orbital is  4.19D-04
 Largest core mixing into a valence orbital is  6.54D-05
 Range of M.O.s used for correlation:     4    45
 NBasis=    45 NAE=     8 NBE=     8 NFC=     3 NFV=     0
 NROrb=     42 NOA=     5 NOB=     5 NVA=    37 NVB=    37
 Leave Link  801 at Sat Jul 23 16:01:14 2016, MaxMem=   62914560 cpu:       0.2
 (Enter /scratch/spipolo/g09_parma/g09A02/g09/l804.exe)
 Closed-shell transformation, MDV=    62914560 ITran=3 ISComp=1.
 Semi-Direct transformation.
 ModeAB=           2 MOrb=             5 LenV=      62725406
 LASXX=        42790 LTotXX=       42790 LenRXX=       42790
 LTotAB=       47770 MaxLAS=      217350 LenRXY=      217350
 NonZer=      234360 LenScr=      784384 LnRSAI=           0
 LnScr1=           0 LExtra=           0 Total=      1044524
 MaxDsk=          -1 SrtSym=           F ITran=            3
 DoSDTr:  NPSUse=  1
 JobTyp=0 Pass  1:  I=   1 to   5.
 (rs|ai) integrals will be sorted in core.
 Complete sort for first half transformation.
 First half transformation complete.
 Complete sort for second half transformation.
 Second half transformation complete.
 Spin components of T(2) and E(2):
     alpha-alpha T2 =       0.1443001053D-01 E2=     -0.3751837745D-01
     alpha-beta  T2 =       0.8028777223D-01 E2=     -0.2086155840D+00
     beta-beta   T2 =       0.1443001053D-01 E2=     -0.3751837745D-01
 ANorm=    0.1053160858D+01
 E2 =    -0.2836523389D+00 EUMP2 =    -0.10005615078354D+03
 Leave Link  804 at Sat Jul 23 16:01:15 2016, MaxMem=   62914560 cpu:       0.2
 (Enter ../g09_cisrho/l914/l914.exe)
 RHF ground state
 MDV=    62914560 DFT=F DoStab=F Mixed=F DoRPA=F DoScal=F NonHer=F
 Making orbital integer symmetry assigments:
 Orbital symmetries:
 BldTbl:  Degeneracy threshold= 1.00D-02
       Occupied  (SG) (SG) (SG) (SG) (SG) (SG) (PI) (PI)
       Virtual   (SG) (PI) (PI) (SG) (SG) (PI) (PI) (PI) (PI) (SG)
                 (DLTA) (DLTA) (PI) (PI) (SG) (SG) (PI) (PI) (SG)
                 (PI) (PI) (SG) (SG) (SG) (SG) (DLTA) (DLTA) (PI)
                 (PI) (DLTA) (DLTA) (SG) (PI) (PI) (SG) (SG) (SG)
 Form IVOs with IExCor=    0 ScaHFX=  1.000000 ScaDFX=  1.000000  1.000000  1.000000  1.000000
 FoFCou: FMM=F IPFlag=           0 FMFlag=      100000 FMFlg1=           0
         NFxFlg=           0 DoJE=F BraDBF=F KetDBF=F FulRan=T
         Omega=  0.000000  0.000000  1.000000  0.000000  0.000000 ICntrl=       0 IOpCl=  1
         NMat0=    1 NMatS0=    1 NMatT0=    0 NMatD0=    1 NMtDS0=    0 NMtDT0=    0
         I1Cent=           0 NGrid=           0.
 Petite list used in FoFCou.
 IMat=  1 1/2 <PG(P)>=          55.805472142947
 IMat=  1 EOne=-0.179226939625D+03 ETwo= 0.558054721429D+02 Energy=-0.123421467482D+03
 MkCIGS:  K=  1 S=1 I=   5 A=    1.
 MkCIGS:  K=  2 S=1 I=   4 A=    1.
 MkCIGS:  K=  3 S=1 I=   5 A=    2.
 MkCIGS:  K=  4 S=1 I=   4 A=    2.
 MkCIGS:  K=  5 S=1 I=   5 A=    3.
 MkCIGS:  K=  6 S=1 I=   4 A=    3.
 MkCIGS:  K=  7 S=1 I=   3 A=    1.
 MkCIGS:  K=  8 S=1 I=   3 A=    2.
 MkCIGS:  K=  9 S=1 I=   3 A=    3.
 MkCIGS:  K= 10 S=1 I=   5 A=    4.
 MkCIGS:  K= 11 S=1 I=   4 A=    4.
 MkCIGS:  K= 12 S=1 I=   5 A=    5.
 MkCIGS:  K= 13 S=1 I=   4 A=    5.
 MkCIGS:  K= 14 S=1 I=   5 A=    6.
 MkCIGS:  K= 15 S=1 I=   4 A=    6.
 MkCIGS:  K= 16 S=1 I=   3 A=    4.
 MkCIGS:  K= 17 S=1 I=   3 A=    5.
 MkCIGS:  K= 18 S=1 I=   3 A=    6.
 MkCIGS:  K= 19 S=1 I=   2 A=    1.
 MkCIGS:  K= 20 S=1 I=   2 A=    2.
 MkCIGS:  K= 21 S=1 I=   2 A=    3.
 MkCIGS:  K= 22 S=1 I=   5 A=    7.
 MkCIGS:  K= 23 S=1 I=   4 A=    7.
 MkCIGS:  K= 24 S=1 I=   5 A=    8.
 MkCIGS:  K= 25 S=1 I=   4 A=    8.
 MkCIGS:  K= 26 S=1 I=   5 A=    9.
 MkCIGS:  K= 27 S=1 I=   4 A=    9.
 MkCIGS:  K= 28 S=1 I=   3 A=    7.
 MkCIGS:  K= 29 S=1 I=   3 A=    8.
 MkCIGS:  K= 30 S=1 I=   3 A=    9.
 MkCIGS:  K= 31 S=1 I=   2 A=    4.
 MkCIGS:  K= 32 S=1 I=   2 A=    5.
 MkCIGS:  K= 33 S=1 I=   5 A=   10.
 MkCIGS:  K= 34 S=1 I=   4 A=   10.
 MkCIGS:  K= 35 S=1 I=   2 A=    6.
 MkCIGS:  K= 36 S=1 I=   3 A=   10.
 MkCIGS:  K= 37 S=1 I=   2 A=    7.
 MkCIGS:  K= 38 S=1 I=   2 A=    8.
 MkCIGS:  K= 39 S=1 I=   2 A=    9.
 MkCIGS:  K= 40 S=1 I=   2 A=   10.
 MkCIGS:  K= 41 S=1 I=   5 A=   11.
 MkCIGS:  K= 42 S=1 I=   4 A=   11.
 MkCIGS:  K= 43 S=1 I=   5 A=   12.
 MkCIGS:  K= 44 S=1 I=   4 A=   12.
 MkCIGS:  K= 45 S=1 I=   3 A=   11.
 MkCIGS:  K= 46 S=1 I=   3 A=   12.
 MkCIGS:  K= 47 S=1 I=   5 A=   13.
 MkCIGS:  K= 48 S=1 I=   4 A=   13.
 MkCIGS:  K= 49 S=1 I=   5 A=   14.
 MkCIGS:  K= 50 S=1 I=   4 A=   14.
 MkCIGS:  K= 51 S=1 I=   5 A=   15.
 MkCIGS:  K= 52 S=1 I=   4 A=   15.
 MkCIGS:  K= 53 S=1 I=   3 A=   13.
 MkCIGS:  K= 54 S=1 I=   3 A=   14.
 MkCIGS:  K= 55 S=1 I=   3 A=   15.
 MkCIGS:  K= 56 S=1 I=   2 A=   11.
 MkCIGS:  K= 57 S=1 I=   2 A=   12.
 MkCIGS:  K= 58 S=1 I=   2 A=   13.
 MkCIGS:  K= 59 S=1 I=   2 A=   14.
 MkCIGS:  K= 60 S=1 I=   2 A=   15.
 MkCIGS:  K= 61 S=1 I=   5 A=   16.
 MkCIGS:  K= 62 S=1 I=   4 A=   16.
 MkCIGS:  K= 63 S=1 I=   5 A=   17.
 MkCIGS:  K= 64 S=1 I=   4 A=   17.
 MkCIGS:  K= 65 S=1 I=   5 A=   18.
 MkCIGS:  K= 66 S=1 I=   4 A=   18.
 MkCIGS:  K= 67 S=1 I=   1 A=    1.
 MkCIGS:  K= 68 S=1 I=   3 A=   16.
 MkCIGS:  K= 69 S=1 I=   3 A=   17.
 MkCIGS:  K= 70 S=1 I=   1 A=    2.
 MkCIGS:  K= 71 S=1 I=   1 A=    3.
 MkCIGS:  K= 72 S=1 I=   3 A=   18.
 MkCIGS:  K= 73 S=1 I=   5 A=   19.
 MkCIGS:  K= 74 S=1 I=   4 A=   19.
 MkCIGS:  K= 75 S=1 I=   3 A=   19.
 MkCIGS:  K= 76 S=1 I=   1 A=    4.
 MkCIGS:  K= 77 S=1 I=   1 A=    5.
 MkCIGS:  K= 78 S=1 I=   1 A=    6.
 MkCIGS:  K= 79 S=1 I=   2 A=   16.
 MkCIGS:  K= 80 S=1 I=   2 A=   17.
    80 initial guesses have been made.
 Convergence on wavefunction:    0.000001000000000
 Davidson Disk Diagonalization:  ConvIn= 1.00D-06 SkipCon=T Conv= 1.00D-06.
 Max sub-space:   320 roots to seek:    80 dimension of matrix:    370
 OrtVec:  Test1= 1.00D+00 Test2= 1.00D-08
 OrtVec:  NIn=     80 NOld=      0 NBNew=     80 NBOld=     80
 OrtVc1:  Ph=1 IOff=     0 IPass= 1 DotMx1= 0.00D+00
 OrtVc1:  Ph=2 IOff=     0 IPass= 1 DotMx1= 0.00D+00
 OrtVc1:  IOff=     0 IS=     1 I=     1 K1=T IndO=     1 NNew1=     1 Dot= 1.00D+00 DotN= 1.00D+00 ElMax1= 6.79D-01 ElMax1N= 6.79D-01
 OrtVc1:  Ph=3 IOff=     0 NNewB=     0 IAdd=     2 IPass= 1 DotMx2= 0.00D+00
 OrtVc1:  IOff=     0 IS=     1 I=     2 K1=T IndO=     2 NNew1=     2 Dot= 1.00D+00 DotN= 1.00D+00 ElMax1= 6.79D-01 ElMax1N= 6.79D-01
 OrtVc1:  Ph=3 IOff=     0 NNewB=     0 IAdd=     3 IPass= 1 DotMx2= 2.68D-19
 OrtVc1:  IOff=     0 IS=     1 I=     3 K1=T IndO=     3 NNew1=     3 Dot= 1.00D+00 DotN= 1.00D+00 ElMax1= 4.29D-01 ElMax1N= 4.29D-01
 OrtVc1:  Ph=3 IOff=     0 NNewB=     0 IAdd=     4 IPass= 1 DotMx2= 2.68D-19
 OrtVc1:  IOff=     0 IS=     1 I=     4 K1=T IndO=     4 NNew1=     4 Dot= 1.00D+00 DotN= 1.00D+00 ElMax1= 4.29D-01 ElMax1N= 4.29D-01
 OrtVc1:  Ph=3 IOff=     0 NNewB=     0 IAdd=     5 IPass= 1 DotMx2= 2.40D-16
 OrtVc1:  IOff=     0 IS=     1 I=     5 K1=T IndO=     5 NNew1=     5 Dot= 1.00D+00 DotN= 1.00D+00 ElMax1= 4.29D-01 ElMax1N= 4.29D-01
 OrtVc1:  Ph=3 IOff=     0 NNewB=     0 IAdd=     6 IPass= 1 DotMx2= 2.40D-16
 OrtVc1:  IOff=     0 IS=     1 I=     6 K1=T IndO=     6 NNew1=     6 Dot= 1.00D+00 DotN= 1.00D+00 ElMax1= 4.29D-01 ElMax1N= 4.29D-01
 OrtVc1:  Ph=3 IOff=     0 NNewB=     0 IAdd=     7 IPass= 1 DotMx2= 0.00D+00
 OrtVc1:  IOff=     0 IS=     1 I=     7 K1=T IndO=     7 NNew1=     7 Dot= 1.00D+00 DotN= 1.00D+00 ElMax1= 6.79D-01 ElMax1N= 6.79D-01
 OrtVc1:  Ph=3 IOff=     0 NNewB=     0 IAdd=     8 IPass= 1 DotMx2= 2.68D-19
 OrtVc1:  IOff=     0 IS=     1 I=     8 K1=T IndO=     8 NNew1=     8 Dot= 1.00D+00 DotN= 1.00D+00 ElMax1= 4.29D-01 ElMax1N= 4.29D-01
 OrtVc1:  Ph=3 IOff=     0 NNewB=     0 IAdd=     9 IPass= 1 DotMx2= 2.40D-16
 OrtVc1:  IOff=     0 IS=     1 I=     9 K1=T IndO=     9 NNew1=     9 Dot= 1.00D+00 DotN= 1.00D+00 ElMax1= 4.29D-01 ElMax1N= 4.29D-01
 OrtVc1:  Ph=3 IOff=     0 NNewB=     0 IAdd=    10 IPass= 1 DotMx2= 1.04D-16
 OrtVc1:  IOff=     0 IS=     1 I=    10 K1=T IndO=    10 NNew1=    10 Dot= 1.00D+00 DotN= 1.00D+00 ElMax1= 4.42D-01 ElMax1N= 4.42D-01
 OrtVc1:  Ph=3 IOff=     0 NNewB=     0 IAdd=    11 IPass= 1 DotMx2= 1.04D-16
 OrtVc1:  IOff=     0 IS=     1 I=    11 K1=T IndO=    11 NNew1=    11 Dot= 1.00D+00 DotN= 1.00D+00 ElMax1= 4.42D-01 ElMax1N= 4.42D-01
 OrtVc1:  Ph=3 IOff=     0 NNewB=     0 IAdd=    12 IPass= 1 DotMx2= 1.82D-16
 OrtVc1:  IOff=     0 IS=     1 I=    12 K1=T IndO=    12 NNew1=    12 Dot= 1.00D+00 DotN= 1.00D+00 ElMax1= 4.42D-01 ElMax1N= 4.42D-01
 OrtVc1:  Ph=3 IOff=     0 NNewB=     0 IAdd=    13 IPass= 1 DotMx2= 1.82D-16
 OrtVc1:  IOff=     0 IS=     1 I=    13 K1=T IndO=    13 NNew1=    13 Dot= 1.00D+00 DotN= 1.00D+00 ElMax1= 4.42D-01 ElMax1N= 4.42D-01
 OrtVc1:  Ph=3 IOff=     0 NNewB=     0 IAdd=    14 IPass= 1 DotMx2= 1.09D-16
 OrtVc1:  IOff=     0 IS=     1 I=    14 K1=T IndO=    14 NNew1=    14 Dot= 1.00D+00 DotN= 1.00D+00 ElMax1= 6.58D-01 ElMax1N= 6.58D-01
 OrtVc1:  Ph=3 IOff=     0 NNewB=     0 IAdd=    15 IPass= 1 DotMx2= 1.09D-16
 OrtVc1:  IOff=     0 IS=     1 I=    15 K1=T IndO=    15 NNew1=    15 Dot= 1.00D+00 DotN= 1.00D+00 ElMax1= 6.58D-01 ElMax1N= 6.58D-01
 OrtVc1:  Ph=3 IOff=     0 NNewB=     0 IAdd=    16 IPass= 1 DotMx2= 1.04D-16
 OrtVc1:  IOff=     0 IS=     1 I=    16 K1=T IndO=    16 NNew1=    16 Dot= 1.00D+00 DotN= 1.00D+00 ElMax1= 4.42D-01 ElMax1N= 4.42D-01
 OrtVc1:  Ph=3 IOff=     0 NNewB=     0 IAdd=    17 IPass= 1 DotMx2= 1.82D-16
 OrtVc1:  IOff=     0 IS=     1 I=    17 K1=T IndO=    17 NNew1=    17 Dot= 1.00D+00 DotN= 1.00D+00 ElMax1= 4.42D-01 ElMax1N= 4.42D-01
 OrtVc1:  Ph=3 IOff=     0 NNewB=     0 IAdd=    18 IPass= 1 DotMx2= 1.09D-16
 OrtVc1:  IOff=     0 IS=     1 I=    18 K1=T IndO=    18 NNew1=    18 Dot= 1.00D+00 DotN= 1.00D+00 ElMax1= 6.58D-01 ElMax1N= 6.58D-01
 OrtVc1:  Ph=3 IOff=     0 NNewB=     0 IAdd=    19 IPass= 1 DotMx2= 0.00D+00
 OrtVc1:  IOff=     0 IS=     1 I=    19 K1=T IndO=    19 NNew1=    19 Dot= 1.00D+00 DotN= 1.00D+00 ElMax1= 6.79D-01 ElMax1N= 6.79D-01
 OrtVc1:  Ph=3 IOff=     0 NNewB=     0 IAdd=    20 IPass= 1 DotMx2= 2.68D-19
 OrtVc1:  IOff=     0 IS=     1 I=    20 K1=T IndO=    20 NNew1=    20 Dot= 1.00D+00 DotN= 1.00D+00 ElMax1= 4.29D-01 ElMax1N= 4.29D-01
 OrtVc1:  Ph=3 IOff=     0 NNewB=     0 IAdd=    21 IPass= 1 DotMx2= 2.40D-16
 OrtVc1:  IOff=     0 IS=     1 I=    21 K1=T IndO=    21 NNew1=    21 Dot= 1.00D+00 DotN= 1.00D+00 ElMax1= 4.29D-01 ElMax1N= 4.29D-01
 OrtVc1:  Ph=3 IOff=     0 NNewB=     0 IAdd=    22 IPass= 1 DotMx2= 8.30D-17
 OrtVc1:  IOff=     0 IS=     1 I=    22 K1=T IndO=    22 NNew1=    22 Dot= 1.00D+00 DotN= 1.00D+00 ElMax1= 6.68D-01 ElMax1N= 6.68D-01
 OrtVc1:  Ph=3 IOff=     0 NNewB=     0 IAdd=    23 IPass= 1 DotMx2= 8.30D-17
 OrtVc1:  IOff=     0 IS=     1 I=    23 K1=T IndO=    23 NNew1=    23 Dot= 1.00D+00 DotN= 1.00D+00 ElMax1= 6.68D-01 ElMax1N= 6.68D-01
 OrtVc1:  Ph=3 IOff=     0 NNewB=     0 IAdd=    24 IPass= 1 DotMx2= 1.16D-16
 OrtVc1:  IOff=     0 IS=     1 I=    24 K1=T IndO=    24 NNew1=    24 Dot= 1.00D+00 DotN= 1.00D+00 ElMax1= 5.53D-01 ElMax1N= 5.53D-01
 OrtVc1:  Ph=3 IOff=     0 NNewB=     0 IAdd=    25 IPass= 1 DotMx2= 1.16D-16
 OrtVc1:  IOff=     0 IS=     1 I=    25 K1=T IndO=    25 NNew1=    25 Dot= 1.00D+00 DotN= 1.00D+00 ElMax1= 5.53D-01 ElMax1N= 5.53D-01
 OrtVc1:  Ph=3 IOff=     0 NNewB=     0 IAdd=    26 IPass= 1 DotMx2= 1.29D-15
 OrtVc1:  IOff=     0 IS=     1 I=    26 K1=T IndO=    26 NNew1=    26 Dot= 1.00D+00 DotN= 1.00D+00 ElMax1= 5.53D-01 ElMax1N= 5.53D-01
 OrtVc1:  Ph=3 IOff=     0 NNewB=     0 IAdd=    27 IPass= 1 DotMx2= 1.29D-15
 OrtVc1:  IOff=     0 IS=     1 I=    27 K1=T IndO=    27 NNew1=    27 Dot= 1.00D+00 DotN= 1.00D+00 ElMax1= 5.53D-01 ElMax1N= 5.53D-01
 OrtVc1:  Ph=3 IOff=     0 NNewB=     0 IAdd=    28 IPass= 1 DotMx2= 8.30D-17
 OrtVc1:  IOff=     0 IS=     1 I=    28 K1=T IndO=    28 NNew1=    28 Dot= 1.00D+00 DotN= 1.00D+00 ElMax1= 6.68D-01 ElMax1N= 6.68D-01
 OrtVc1:  Ph=3 IOff=     0 NNewB=     0 IAdd=    29 IPass= 1 DotMx2= 1.16D-16
 OrtVc1:  IOff=     0 IS=     1 I=    29 K1=T IndO=    29 NNew1=    29 Dot= 1.00D+00 DotN= 1.00D+00 ElMax1= 5.53D-01 ElMax1N= 5.53D-01
 OrtVc1:  Ph=3 IOff=     0 NNewB=     0 IAdd=    30 IPass= 1 DotMx2= 1.29D-15
 OrtVc1:  IOff=     0 IS=     1 I=    30 K1=T IndO=    30 NNew1=    30 Dot= 1.00D+00 DotN= 1.00D+00 ElMax1= 5.53D-01 ElMax1N= 5.53D-01
 OrtVc1:  Ph=2 IOff=    30 IPass= 1 DotMx1= 7.29D-16
 OrtVc1:  IOff=     0 IS=    31 I=    31 K1=T IndO=    31 NNew1=     1 Dot= 1.00D+00 DotN= 1.00D+00 ElMax1= 4.42D-01 ElMax1N= 4.42D-01
 OrtVc1:  Ph=3 IOff=     0 NNewB=    30 IAdd=    32 IPass= 1 DotMx2= 1.92D-17
 OrtVc1:  IOff=     0 IS=    31 I=    32 K1=T IndO=    32 NNew1=     2 Dot= 1.00D+00 DotN= 1.00D+00 ElMax1= 4.42D-01 ElMax1N= 4.42D-01
 OrtVc1:  Ph=3 IOff=     0 NNewB=    30 IAdd=    33 IPass= 1 DotMx2= 0.00D+00
 OrtVc1:  IOff=     0 IS=    31 I=    33 K1=T IndO=    33 NNew1=     3 Dot= 1.00D+00 DotN= 1.00D+00 ElMax1= 6.87D-01 ElMax1N= 6.87D-01
 OrtVc1:  Ph=3 IOff=     0 NNewB=    30 IAdd=    34 IPass= 1 DotMx2= 0.00D+00
 OrtVc1:  IOff=     0 IS=    31 I=    34 K1=T IndO=    34 NNew1=     4 Dot= 1.00D+00 DotN= 1.00D+00 ElMax1= 6.87D-01 ElMax1N= 6.87D-01
 OrtVc1:  Ph=3 IOff=     0 NNewB=    30 IAdd=    35 IPass= 1 DotMx2= 3.90D-19
 OrtVc1:  IOff=     0 IS=    31 I=    35 K1=T IndO=    35 NNew1=     5 Dot= 1.00D+00 DotN= 1.00D+00 ElMax1= 6.58D-01 ElMax1N= 6.58D-01
 OrtVc1:  Ph=3 IOff=     0 NNewB=    30 IAdd=    36 IPass= 1 DotMx2= 0.00D+00
 OrtVc1:  IOff=     0 IS=    31 I=    36 K1=T IndO=    36 NNew1=     6 Dot= 1.00D+00 DotN= 1.00D+00 ElMax1= 6.87D-01 ElMax1N= 6.87D-01
 OrtVc1:  Ph=3 IOff=     0 NNewB=    30 IAdd=    37 IPass= 1 DotMx2= 9.09D-17
 OrtVc1:  IOff=     0 IS=    31 I=    37 K1=T IndO=    37 NNew1=     7 Dot= 1.00D+00 DotN= 1.00D+00 ElMax1= 6.68D-01 ElMax1N= 6.68D-01
 OrtVc1:  Ph=3 IOff=     0 NNewB=    30 IAdd=    38 IPass= 1 DotMx2= 8.60D-17
 OrtVc1:  IOff=     0 IS=    31 I=    38 K1=T IndO=    38 NNew1=     8 Dot= 1.00D+00 DotN= 1.00D+00 ElMax1= 5.53D-01 ElMax1N= 5.53D-01
 OrtVc1:  Ph=3 IOff=     0 NNewB=    30 IAdd=    39 IPass= 1 DotMx2= 1.29D-15
 OrtVc1:  IOff=     0 IS=    31 I=    39 K1=T IndO=    39 NNew1=     9 Dot= 1.00D+00 DotN= 1.00D+00 ElMax1= 5.53D-01 ElMax1N= 5.53D-01
 OrtVc1:  Ph=3 IOff=     0 NNewB=    30 IAdd=    40 IPass= 1 DotMx2= 7.25D-16
 OrtVc1:  IOff=     0 IS=    31 I=    40 K1=T IndO=    40 NNew1=    10 Dot= 1.00D+00 DotN= 1.00D+00 ElMax1= 6.87D-01 ElMax1N= 6.87D-01
 OrtVc1:  Ph=3 IOff=     0 NNewB=    30 IAdd=    41 IPass= 1 DotMx2= 9.00D-20
 OrtVc1:  IOff=     0 IS=    31 I=    41 K1=T IndO=    41 NNew1=    11 Dot= 1.00D+00 DotN= 1.00D+00 ElMax1= 7.07D-01 ElMax1N= 7.07D-01
 OrtVc1:  Ph=3 IOff=     0 NNewB=    30 IAdd=    42 IPass= 1 DotMx2= 9.00D-20
 OrtVc1:  IOff=     0 IS=    31 I=    42 K1=T IndO=    42 NNew1=    12 Dot= 1.00D+00 DotN= 1.00D+00 ElMax1= 7.07D-01 ElMax1N= 7.07D-01
 OrtVc1:  Ph=3 IOff=     0 NNewB=    30 IAdd=    43 IPass= 1 DotMx2= 2.40D-17
 OrtVc1:  IOff=     0 IS=    31 I=    43 K1=T IndO=    43 NNew1=    13 Dot= 1.00D+00 DotN= 1.00D+00 ElMax1= 7.07D-01 ElMax1N= 7.07D-01
 OrtVc1:  Ph=3 IOff=     0 NNewB=    30 IAdd=    44 IPass= 1 DotMx2= 2.40D-17
 OrtVc1:  IOff=     0 IS=    31 I=    44 K1=T IndO=    44 NNew1=    14 Dot= 1.00D+00 DotN= 1.00D+00 ElMax1= 7.07D-01 ElMax1N= 7.07D-01
 OrtVc1:  Ph=3 IOff=     0 NNewB=    30 IAdd=    45 IPass= 1 DotMx2= 9.00D-20
 OrtVc1:  IOff=     0 IS=    31 I=    45 K1=T IndO=    45 NNew1=    15 Dot= 1.00D+00 DotN= 1.00D+00 ElMax1= 7.07D-01 ElMax1N= 7.07D-01
 OrtVc1:  Ph=3 IOff=     0 NNewB=    30 IAdd=    46 IPass= 1 DotMx2= 2.40D-17
 OrtVc1:  IOff=     0 IS=    31 I=    46 K1=T IndO=    46 NNew1=    16 Dot= 1.00D+00 DotN= 1.00D+00 ElMax1= 7.07D-01 ElMax1N= 7.07D-01
 OrtVc1:  Ph=3 IOff=     0 NNewB=    30 IAdd=    47 IPass= 1 DotMx2= 2.29D-16
 OrtVc1:  IOff=     0 IS=    31 I=    47 K1=T IndO=    47 NNew1=    17 Dot= 1.00D+00 DotN= 1.00D+00 ElMax1= 6.08D-01 ElMax1N= 6.08D-01
 OrtVc1:  Ph=3 IOff=     0 NNewB=    30 IAdd=    48 IPass= 1 DotMx2= 2.29D-16
 OrtVc1:  IOff=     0 IS=    31 I=    48 K1=T IndO=    48 NNew1=    18 Dot= 1.00D+00 DotN= 1.00D+00 ElMax1= 6.08D-01 ElMax1N= 6.08D-01
 OrtVc1:  Ph=3 IOff=     0 NNewB=    30 IAdd=    49 IPass= 1 DotMx2= 3.97D-16
 OrtVc1:  IOff=     0 IS=    31 I=    49 K1=T IndO=    49 NNew1=    19 Dot= 1.00D+00 DotN= 1.00D+00 ElMax1= 6.08D-01 ElMax1N= 6.08D-01
 OrtVc1:  Ph=3 IOff=     0 NNewB=    30 IAdd=    50 IPass= 1 DotMx2= 3.97D-16
 OrtVc1:  IOff=     0 IS=    31 I=    50 K1=T IndO=    50 NNew1=    20 Dot= 1.00D+00 DotN= 1.00D+00 ElMax1= 6.08D-01 ElMax1N= 6.08D-01
 OrtVc1:  Ph=3 IOff=     0 NNewB=    30 IAdd=    51 IPass= 1 DotMx2= 8.64D-17
 OrtVc1:  IOff=     0 IS=    31 I=    51 K1=T IndO=    51 NNew1=    21 Dot= 1.00D+00 DotN= 1.00D+00 ElMax1= 6.90D-01 ElMax1N= 6.90D-01
 OrtVc1:  Ph=3 IOff=     0 NNewB=    30 IAdd=    52 IPass= 1 DotMx2= 8.64D-17
 OrtVc1:  IOff=     0 IS=    31 I=    52 K1=T IndO=    52 NNew1=    22 Dot= 1.00D+00 DotN= 1.00D+00 ElMax1= 6.90D-01 ElMax1N= 6.90D-01
 OrtVc1:  Ph=3 IOff=     0 NNewB=    30 IAdd=    53 IPass= 1 DotMx2= 2.29D-16
 OrtVc1:  IOff=     0 IS=    31 I=    53 K1=T IndO=    53 NNew1=    23 Dot= 1.00D+00 DotN= 1.00D+00 ElMax1= 6.08D-01 ElMax1N= 6.08D-01
 OrtVc1:  Ph=3 IOff=     0 NNewB=    30 IAdd=    54 IPass= 1 DotMx2= 3.97D-16
 OrtVc1:  IOff=     0 IS=    31 I=    54 K1=T IndO=    54 NNew1=    24 Dot= 1.00D+00 DotN= 1.00D+00 ElMax1= 6.08D-01 ElMax1N= 6.08D-01
 OrtVc1:  Ph=3 IOff=     0 NNewB=    30 IAdd=    55 IPass= 1 DotMx2= 8.64D-17
 OrtVc1:  IOff=     0 IS=    31 I=    55 K1=T IndO=    55 NNew1=    25 Dot= 1.00D+00 DotN= 1.00D+00 ElMax1= 6.90D-01 ElMax1N= 6.90D-01
 OrtVc1:  Ph=3 IOff=     0 NNewB=    30 IAdd=    56 IPass= 1 DotMx2= 4.50D-17
 OrtVc1:  IOff=     0 IS=    31 I=    56 K1=T IndO=    56 NNew1=    26 Dot= 1.00D+00 DotN= 1.00D+00 ElMax1= 7.07D-01 ElMax1N= 7.07D-01
 OrtVc1:  Ph=3 IOff=     0 NNewB=    30 IAdd=    57 IPass= 1 DotMx2= 1.98D-16
 OrtVc1:  IOff=     0 IS=    31 I=    57 K1=T IndO=    57 NNew1=    27 Dot= 1.00D+00 DotN= 1.00D+00 ElMax1= 7.07D-01 ElMax1N= 7.07D-01
 OrtVc1:  Ph=3 IOff=     0 NNewB=    30 IAdd=    58 IPass= 1 DotMx2= 3.41D-16
 OrtVc1:  IOff=     0 IS=    31 I=    58 K1=T IndO=    58 NNew1=    28 Dot= 1.00D+00 DotN= 1.00D+00 ElMax1= 6.08D-01 ElMax1N= 6.08D-01
 OrtVc1:  Ph=3 IOff=     0 NNewB=    30 IAdd=    59 IPass= 1 DotMx2= 4.67D-16
 OrtVc1:  IOff=     0 IS=    31 I=    59 K1=T IndO=    59 NNew1=    29 Dot= 1.00D+00 DotN= 1.00D+00 ElMax1= 6.08D-01 ElMax1N= 6.08D-01
 OrtVc1:  Ph=3 IOff=     0 NNewB=    30 IAdd=    60 IPass= 1 DotMx2= 1.52D-16
 OrtVc1:  IOff=     0 IS=    31 I=    60 K1=T IndO=    60 NNew1=    30 Dot= 1.00D+00 DotN= 1.00D+00 ElMax1= 6.90D-01 ElMax1N= 6.90D-01
 OrtVc1:  Ph=2 IOff=    60 IPass= 1 DotMx1= 4.36D-16
 OrtVc1:  IOff=     0 IS=    61 I=    61 K1=T IndO=    61 NNew1=     1 Dot= 1.00D+00 DotN= 1.00D+00 ElMax1= 6.72D-01 ElMax1N= 6.72D-01
 OrtVc1:  Ph=3 IOff=     0 NNewB=    60 IAdd=    62 IPass= 1 DotMx2= 0.00D+00
 OrtVc1:  IOff=     0 IS=    61 I=    62 K1=T IndO=    62 NNew1=     2 Dot= 1.00D+00 DotN= 1.00D+00 ElMax1= 6.72D-01 ElMax1N= 6.72D-01
 OrtVc1:  Ph=3 IOff=     0 NNewB=    60 IAdd=    63 IPass= 1 DotMx2= 1.51D-16
 OrtVc1:  IOff=     0 IS=    61 I=    63 K1=T IndO=    63 NNew1=     3 Dot= 1.00D+00 DotN= 1.00D+00 ElMax1= 6.72D-01 ElMax1N= 6.72D-01
 OrtVc1:  Ph=3 IOff=     0 NNewB=    60 IAdd=    64 IPass= 1 DotMx2= 1.51D-16
 OrtVc1:  IOff=     0 IS=    61 I=    64 K1=T IndO=    64 NNew1=     4 Dot= 1.00D+00 DotN= 1.00D+00 ElMax1= 6.72D-01 ElMax1N= 6.72D-01
 OrtVc1:  Ph=3 IOff=     0 NNewB=    60 IAdd=    65 IPass= 1 DotMx2= 2.06D-18
 OrtVc1:  IOff=     0 IS=    61 I=    65 K1=T IndO=    65 NNew1=     5 Dot= 1.00D+00 DotN= 1.00D+00 ElMax1= 5.75D-01 ElMax1N= 5.75D-01
 OrtVc1:  Ph=3 IOff=     0 NNewB=    60 IAdd=    66 IPass= 1 DotMx2= 2.06D-18
 OrtVc1:  IOff=     0 IS=    61 I=    66 K1=T IndO=    66 NNew1=     6 Dot= 1.00D+00 DotN= 1.00D+00 ElMax1= 5.75D-01 ElMax1N= 5.75D-01
 OrtVc1:  Ph=3 IOff=     0 NNewB=    60 IAdd=    67 IPass= 1 DotMx2= 0.00D+00
 OrtVc1:  IOff=     0 IS=    61 I=    67 K1=T IndO=    67 NNew1=     7 Dot= 1.00D+00 DotN= 1.00D+00 ElMax1= 6.79D-01 ElMax1N= 6.79D-01
 OrtVc1:  Ph=3 IOff=     0 NNewB=    60 IAdd=    68 IPass= 1 DotMx2= 0.00D+00
 OrtVc1:  IOff=     0 IS=    61 I=    68 K1=T IndO=    68 NNew1=     8 Dot= 1.00D+00 DotN= 1.00D+00 ElMax1= 6.72D-01 ElMax1N= 6.72D-01
 OrtVc1:  Ph=3 IOff=     0 NNewB=    60 IAdd=    69 IPass= 1 DotMx2= 1.51D-16
 OrtVc1:  IOff=     0 IS=    61 I=    69 K1=T IndO=    69 NNew1=     9 Dot= 1.00D+00 DotN= 1.00D+00 ElMax1= 6.72D-01 ElMax1N= 6.72D-01
 OrtVc1:  Ph=3 IOff=     0 NNewB=    60 IAdd=    70 IPass= 1 DotMx2= 2.68D-19
 OrtVc1:  IOff=     0 IS=    61 I=    70 K1=T IndO=    70 NNew1=    10 Dot= 1.00D+00 DotN= 1.00D+00 ElMax1= 4.29D-01 ElMax1N= 4.29D-01
 OrtVc1:  Ph=3 IOff=     0 NNewB=    60 IAdd=    71 IPass= 1 DotMx2= 2.40D-16
 OrtVc1:  IOff=     0 IS=    61 I=    71 K1=T IndO=    71 NNew1=    11 Dot= 1.00D+00 DotN= 1.00D+00 ElMax1= 4.29D-01 ElMax1N= 4.29D-01
 OrtVc1:  Ph=3 IOff=     0 NNewB=    60 IAdd=    72 IPass= 1 DotMx2= 2.06D-18
 OrtVc1:  IOff=     0 IS=    61 I=    72 K1=T IndO=    72 NNew1=    12 Dot= 1.00D+00 DotN= 1.00D+00 ElMax1= 5.75D-01 ElMax1N= 5.75D-01
 OrtVc1:  Ph=3 IOff=     0 NNewB=    60 IAdd=    73 IPass= 1 DotMx2= 6.26D-16
 OrtVc1:  IOff=     0 IS=    61 I=    73 K1=T IndO=    73 NNew1=    13 Dot= 1.00D+00 DotN= 1.00D+00 ElMax1= 5.75D-01 ElMax1N= 5.75D-01
 OrtVc1:  Ph=3 IOff=     0 NNewB=    60 IAdd=    74 IPass= 1 DotMx2= 6.26D-16
 OrtVc1:  IOff=     0 IS=    61 I=    74 K1=T IndO=    74 NNew1=    14 Dot= 1.00D+00 DotN= 1.00D+00 ElMax1= 5.75D-01 ElMax1N= 5.75D-01
 OrtVc1:  Ph=3 IOff=     0 NNewB=    60 IAdd=    75 IPass= 1 DotMx2= 6.26D-16
 OrtVc1:  IOff=     0 IS=    61 I=    75 K1=T IndO=    75 NNew1=    15 Dot= 1.00D+00 DotN= 1.00D+00 ElMax1= 5.75D-01 ElMax1N= 5.75D-01
 OrtVc1:  Ph=3 IOff=     0 NNewB=    60 IAdd=    76 IPass= 1 DotMx2= 1.04D-16
 OrtVc1:  IOff=     0 IS=    61 I=    76 K1=T IndO=    76 NNew1=    16 Dot= 1.00D+00 DotN= 1.00D+00 ElMax1= 4.42D-01 ElMax1N= 4.42D-01
 OrtVc1:  Ph=3 IOff=     0 NNewB=    60 IAdd=    77 IPass= 1 DotMx2= 1.82D-16
 OrtVc1:  IOff=     0 IS=    61 I=    77 K1=T IndO=    77 NNew1=    17 Dot= 1.00D+00 DotN= 1.00D+00 ElMax1= 4.42D-01 ElMax1N= 4.42D-01
 OrtVc1:  Ph=3 IOff=     0 NNewB=    60 IAdd=    78 IPass= 1 DotMx2= 1.09D-16
 OrtVc1:  IOff=     0 IS=    61 I=    78 K1=T IndO=    78 NNew1=    18 Dot= 1.00D+00 DotN= 1.00D+00 ElMax1= 6.58D-01 ElMax1N= 6.58D-01
 OrtVc1:  Ph=3 IOff=     0 NNewB=    60 IAdd=    79 IPass= 1 DotMx2= 0.00D+00
 OrtVc1:  IOff=     0 IS=    61 I=    79 K1=T IndO=    79 NNew1=    19 Dot= 1.00D+00 DotN= 1.00D+00 ElMax1= 6.72D-01 ElMax1N= 6.72D-01
 OrtVc1:  Ph=3 IOff=     0 NNewB=    60 IAdd=    80 IPass= 1 DotMx2= 1.47D-16
 OrtVc1:  IOff=     0 IS=    61 I=    80 K1=T IndO=    80 NNew1=    20 Dot= 1.00D+00 DotN= 1.00D+00 ElMax1= 6.72D-01 ElMax1N= 6.72D-01
 Iteration     1 Dimension    80 NMult    80
 OrtVec:  Test1= 1.00D+00 Test2= 1.00D-08
 OrtVec:  NIn=     80 NOld=      0 NBNew=     80 NBOld=     80
 OrtVc1:  Ph=1 IOff=     0 IPass= 1 DotMx1= 0.00D+00
 OrtVc1:  Ph=2 IOff=     0 IPass= 1 DotMx1= 0.00D+00
 OrtVc1:  IOff=     0 IS=     1 I=     1 K1=T IndO=     1 NNew1=     1 Dot= 1.00D+00 DotN= 1.00D+00 ElMax1= 3.52D-01 ElMax1N= 3.52D-01
 OrtVc1:  Ph=3 IOff=     0 NNewB=     0 IAdd=     2 IPass= 1 DotMx2= 0.00D+00
 OrtVc1:  IOff=     0 IS=     1 I=     2 K1=T IndO=     2 NNew1=     2 Dot= 1.00D+00 DotN= 1.00D+00 ElMax1= 6.80D-01 ElMax1N= 6.80D-01
 OrtVc1:  Ph=3 IOff=     0 NNewB=     0 IAdd=     3 IPass= 1 DotMx2= 1.22D-16
 OrtVc1:  IOff=     0 IS=     1 I=     3 K1=T IndO=     3 NNew1=     3 Dot= 1.00D+00 DotN= 1.00D+00 ElMax1= 6.80D-01 ElMax1N= 6.80D-01
 OrtVc1:  Ph=3 IOff=     0 NNewB=     0 IAdd=     4 IPass= 1 DotMx2= 1.17D-14
 OrtVc1:  IOff=     0 IS=     1 I=     4 K1=T IndO=     4 NNew1=     4 Dot= 1.00D+00 DotN= 1.00D+00 ElMax1= 3.65D-01 ElMax1N= 3.65D-01
 OrtVc1:  Ph=3 IOff=     0 NNewB=     0 IAdd=     5 IPass= 1 DotMx2= 4.21D-15
 OrtVc1:  IOff=     0 IS=     1 I=     5 K1=T IndO=     5 NNew1=     5 Dot= 1.00D+00 DotN= 1.00D+00 ElMax1= 3.65D-01 ElMax1N= 3.65D-01
 OrtVc1:  Ph=3 IOff=     0 NNewB=     0 IAdd=     6 IPass= 1 DotMx2= 2.49D-15
 OrtVc1:  IOff=     0 IS=     1 I=     6 K1=T IndO=     6 NNew1=     6 Dot= 1.00D+00 DotN= 1.00D+00 ElMax1= 6.70D-01 ElMax1N= 6.70D-01
 OrtVc1:  Ph=3 IOff=     0 NNewB=     0 IAdd=     7 IPass= 1 DotMx2= 7.04D-10
 OrtVc1:  Ph=3 IOff=     0 NNewB=     0 IAdd=     7 IPass= 2 DotMx2= 2.79D-18
 OrtVc1:  IOff=     0 IS=     1 I=     7 K1=T IndO=     7 NNew1=     7 Dot= 1.00D+00 DotN= 1.00D+00 ElMax1= 5.93D-01 ElMax1N= 5.93D-01
 OrtVc1:  Ph=3 IOff=     0 NNewB=     0 IAdd=     8 IPass= 1 DotMx2= 7.04D-10
 OrtVc1:  Ph=3 IOff=     0 NNewB=     0 IAdd=     8 IPass= 2 DotMx2= 1.19D-17
 OrtVc1:  IOff=     0 IS=     1 I=     8 K1=T IndO=     8 NNew1=     8 Dot= 1.00D+00 DotN= 1.00D+00 ElMax1= 5.93D-01 ElMax1N= 5.93D-01
 OrtVc1:  Ph=3 IOff=     0 NNewB=     0 IAdd=     9 IPass= 1 DotMx2= 4.07D-13
 OrtVc1:  IOff=     0 IS=     1 I=     9 K1=T IndO=     9 NNew1=     9 Dot= 1.00D+00 DotN= 1.00D+00 ElMax1= 4.93D-01 ElMax1N= 4.93D-01
 OrtVc1:  Ph=3 IOff=     0 NNewB=     0 IAdd=    10 IPass= 1 DotMx2= 3.21D-16
 OrtVc1:  IOff=     0 IS=     1 I=    10 K1=T IndO=    10 NNew1=    10 Dot= 1.00D+00 DotN= 1.00D+00 ElMax1= 3.54D-01 ElMax1N= 3.54D-01
 OrtVc1:  Ph=3 IOff=     0 NNewB=     0 IAdd=    11 IPass= 1 DotMx2= 2.60D-09
 OrtVc1:  Ph=3 IOff=     0 NNewB=     0 IAdd=    11 IPass= 2 DotMx2= 1.37D-17
 OrtVc1:  IOff=     0 IS=     1 I=    11 K1=T IndO=    11 NNew1=    11 Dot= 1.00D+00 DotN= 1.00D+00 ElMax1= 6.56D-01 ElMax1N= 6.56D-01
 OrtVc1:  Ph=3 IOff=     0 NNewB=     0 IAdd=    12 IPass= 1 DotMx2= 2.60D-09
 OrtVc1:  Ph=3 IOff=     0 NNewB=     0 IAdd=    12 IPass= 2 DotMx2= 3.61D-17
 OrtVc1:  IOff=     0 IS=     1 I=    12 K1=T IndO=    12 NNew1=    12 Dot= 1.00D+00 DotN= 1.00D+00 ElMax1= 6.56D-01 ElMax1N= 6.56D-01
 OrtVc1:  Ph=3 IOff=     0 NNewB=     0 IAdd=    13 IPass= 1 DotMx2= 1.88D-15
 OrtVc1:  IOff=     0 IS=     1 I=    13 K1=T IndO=    13 NNew1=    13 Dot= 1.00D+00 DotN= 1.00D+00 ElMax1= 3.11D-01 ElMax1N= 3.11D-01
 OrtVc1:  Ph=3 IOff=     0 NNewB=     0 IAdd=    14 IPass= 1 DotMx2= 7.12D-15
 OrtVc1:  IOff=     0 IS=     1 I=    14 K1=T IndO=    14 NNew1=    14 Dot= 1.00D+00 DotN= 1.00D+00 ElMax1= 3.11D-01 ElMax1N= 3.11D-01
 OrtVc1:  Ph=3 IOff=     0 NNewB=     0 IAdd=    15 IPass= 1 DotMx2= 7.78D-10
 OrtVc1:  Ph=3 IOff=     0 NNewB=     0 IAdd=    15 IPass= 2 DotMx2= 2.17D-17
 OrtVc1:  IOff=     0 IS=     1 I=    15 K1=T IndO=    15 NNew1=    15 Dot= 1.00D+00 DotN= 1.00D+00 ElMax1= 3.91D-01 ElMax1N= 3.91D-01
 OrtVc1:  Ph=3 IOff=     0 NNewB=     0 IAdd=    16 IPass= 1 DotMx2= 7.78D-10
 OrtVc1:  Ph=3 IOff=     0 NNewB=     0 IAdd=    16 IPass= 2 DotMx2= 4.98D-17
 OrtVc1:  IOff=     0 IS=     1 I=    16 K1=T IndO=    16 NNew1=    16 Dot= 1.00D+00 DotN= 1.00D+00 ElMax1= 3.91D-01 ElMax1N= 3.91D-01
 OrtVc1:  Ph=3 IOff=     0 NNewB=     0 IAdd=    17 IPass= 1 DotMx2= 2.04D-13
 OrtVc1:  IOff=     0 IS=     1 I=    17 K1=T IndO=    17 NNew1=    17 Dot= 1.00D+00 DotN= 1.00D+00 ElMax1= 6.69D-01 ElMax1N= 6.69D-01
 OrtVc1:  Ph=3 IOff=     0 NNewB=     0 IAdd=    18 IPass= 1 DotMx2= 5.39D-13
 OrtVc1:  IOff=     0 IS=     1 I=    18 K1=T IndO=    18 NNew1=    18 Dot= 1.00D+00 DotN= 1.00D+00 ElMax1= 6.37D-01 ElMax1N= 6.37D-01
 OrtVc1:  Ph=3 IOff=     0 NNewB=     0 IAdd=    19 IPass= 1 DotMx2= 4.01D-09
 OrtVc1:  Ph=3 IOff=     0 NNewB=     0 IAdd=    19 IPass= 2 DotMx2= 1.77D-17
 OrtVc1:  IOff=     0 IS=     1 I=    19 K1=T IndO=    19 NNew1=    19 Dot= 1.00D+00 DotN= 1.00D+00 ElMax1= 4.80D-01 ElMax1N= 4.80D-01
 OrtVc1:  Ph=3 IOff=     0 NNewB=     0 IAdd=    20 IPass= 1 DotMx2= 4.01D-09
 OrtVc1:  Ph=3 IOff=     0 NNewB=     0 IAdd=    20 IPass= 2 DotMx2= 1.35D-17
 OrtVc1:  IOff=     0 IS=     1 I=    20 K1=T IndO=    20 NNew1=    20 Dot= 1.00D+00 DotN= 1.00D+00 ElMax1= 4.80D-01 ElMax1N= 4.80D-01
 OrtVc1:  Ph=3 IOff=     0 NNewB=     0 IAdd=    21 IPass= 1 DotMx2= 5.59D-12
 OrtVc1:  Ph=3 IOff=     0 NNewB=     0 IAdd=    21 IPass= 2 DotMx2= 3.08D-17
 OrtVc1:  IOff=     0 IS=     1 I=    21 K1=T IndO=    21 NNew1=    21 Dot= 1.00D+00 DotN= 1.00D+00 ElMax1= 4.75D-01 ElMax1N= 4.75D-01
 OrtVc1:  Ph=3 IOff=     0 NNewB=     0 IAdd=    22 IPass= 1 DotMx2= 2.80D-09
 OrtVc1:  Ph=3 IOff=     0 NNewB=     0 IAdd=    22 IPass= 2 DotMx2= 3.86D-17
 OrtVc1:  IOff=     0 IS=     1 I=    22 K1=T IndO=    22 NNew1=    22 Dot= 1.00D+00 DotN= 1.00D+00 ElMax1= 6.44D-01 ElMax1N= 6.44D-01
 OrtVc1:  Ph=3 IOff=     0 NNewB=     0 IAdd=    23 IPass= 1 DotMx2= 2.80D-09
 OrtVc1:  Ph=3 IOff=     0 NNewB=     0 IAdd=    23 IPass= 2 DotMx2= 4.86D-17
 OrtVc1:  IOff=     0 IS=     1 I=    23 K1=T IndO=    23 NNew1=    23 Dot= 1.00D+00 DotN= 1.00D+00 ElMax1= 6.44D-01 ElMax1N= 6.44D-01
 OrtVc1:  Ph=3 IOff=     0 NNewB=     0 IAdd=    24 IPass= 1 DotMx2= 3.56D-15
 OrtVc1:  IOff=     0 IS=     1 I=    24 K1=T IndO=    24 NNew1=    24 Dot= 1.00D+00 DotN= 1.00D+00 ElMax1= 4.00D-01 ElMax1N= 4.00D-01
 OrtVc1:  Ph=3 IOff=     0 NNewB=     0 IAdd=    25 IPass= 1 DotMx2= 2.94D-14
 OrtVc1:  IOff=     0 IS=     1 I=    25 K1=T IndO=    25 NNew1=    25 Dot= 1.00D+00 DotN= 1.00D+00 ElMax1= 3.62D-01 ElMax1N= 3.62D-01
 OrtVc1:  Ph=3 IOff=     0 NNewB=     0 IAdd=    26 IPass= 1 DotMx2= 4.94D-14
 OrtVc1:  IOff=     0 IS=     1 I=    26 K1=T IndO=    26 NNew1=    26 Dot= 1.00D+00 DotN= 1.00D+00 ElMax1= 3.62D-01 ElMax1N= 3.62D-01
 OrtVc1:  Ph=3 IOff=     0 NNewB=     0 IAdd=    27 IPass= 1 DotMx2= 3.62D-11
 OrtVc1:  Ph=3 IOff=     0 NNewB=     0 IAdd=    27 IPass= 2 DotMx2= 6.32D-17
 OrtVc1:  IOff=     0 IS=     1 I=    27 K1=T IndO=    27 NNew1=    27 Dot= 1.00D+00 DotN= 1.00D+00 ElMax1= 6.47D-01 ElMax1N= 6.47D-01
 OrtVc1:  Ph=3 IOff=     0 NNewB=     0 IAdd=    28 IPass= 1 DotMx2= 2.49D-08
 OrtVc1:  Ph=3 IOff=     0 NNewB=     0 IAdd=    28 IPass= 2 DotMx2= 7.84D-17
 OrtVc1:  IOff=     0 IS=     1 I=    28 K1=T IndO=    28 NNew1=    28 Dot= 1.00D+00 DotN= 1.00D+00 ElMax1= 4.25D-01 ElMax1N= 4.25D-01
 OrtVc1:  Ph=3 IOff=     0 NNewB=     0 IAdd=    29 IPass= 1 DotMx2= 2.49D-08
 OrtVc1:  Ph=3 IOff=     0 NNewB=     0 IAdd=    29 IPass= 2 DotMx2= 5.06D-17
 OrtVc1:  IOff=     0 IS=     1 I=    29 K1=T IndO=    29 NNew1=    29 Dot= 1.00D+00 DotN= 1.00D+00 ElMax1= 4.25D-01 ElMax1N= 4.25D-01
 OrtVc1:  Ph=3 IOff=     0 NNewB=     0 IAdd=    30 IPass= 1 DotMx2= 1.58D-12
 OrtVc1:  Ph=3 IOff=     0 NNewB=     0 IAdd=    30 IPass= 2 DotMx2= 3.59D-17
 OrtVc1:  IOff=     0 IS=     1 I=    30 K1=T IndO=    30 NNew1=    30 Dot= 1.00D+00 DotN= 1.00D+00 ElMax1= 6.01D-01 ElMax1N= 6.01D-01
 OrtVc1:  Ph=2 IOff=    30 IPass= 1 DotMx1= 7.68D-07
 OrtVc1:  Ph=2 IOff=    30 IPass= 2 DotMx1= 3.47D-17
 OrtVc1:  IOff=     0 IS=    31 I=    31 K1=T IndO=    31 NNew1=     1 Dot= 1.00D+00 DotN= 1.00D+00 ElMax1= 6.33D-01 ElMax1N= 6.33D-01
 OrtVc1:  Ph=3 IOff=     0 NNewB=    30 IAdd=    32 IPass= 1 DotMx2= 5.87D-17
 OrtVc1:  IOff=     0 IS=    31 I=    32 K1=T IndO=    32 NNew1=     2 Dot= 1.00D+00 DotN= 1.00D+00 ElMax1= 6.33D-01 ElMax1N= 6.33D-01
 OrtVc1:  Ph=3 IOff=     0 NNewB=    30 IAdd=    33 IPass= 1 DotMx2= 6.09D-11
 OrtVc1:  Ph=3 IOff=     0 NNewB=    30 IAdd=    33 IPass= 2 DotMx2= 1.32D-17
 OrtVc1:  IOff=     0 IS=    31 I=    33 K1=T IndO=    33 NNew1=     3 Dot= 1.00D+00 DotN= 1.00D+00 ElMax1= 4.86D-01 ElMax1N= 4.86D-01
 OrtVc1:  Ph=3 IOff=     0 NNewB=    30 IAdd=    34 IPass= 1 DotMx2= 6.09D-11
 OrtVc1:  Ph=3 IOff=     0 NNewB=    30 IAdd=    34 IPass= 2 DotMx2= 2.08D-17
 OrtVc1:  IOff=     0 IS=    31 I=    34 K1=T IndO=    34 NNew1=     4 Dot= 1.00D+00 DotN= 1.00D+00 ElMax1= 4.86D-01 ElMax1N= 4.86D-01
 OrtVc1:  Ph=3 IOff=     0 NNewB=    30 IAdd=    35 IPass= 1 DotMx2= 0.00D+00
 OrtVc1:  IOff=     0 IS=    31 I=    35 K1=T IndO=    35 NNew1=     5 Dot= 1.00D+00 DotN= 1.00D+00 ElMax1= 6.64D-01 ElMax1N= 6.64D-01
 OrtVc1:  Ph=3 IOff=     0 NNewB=    30 IAdd=    36 IPass= 1 DotMx2= 1.98D-16
 OrtVc1:  IOff=     0 IS=    31 I=    36 K1=T IndO=    36 NNew1=     6 Dot= 1.00D+00 DotN= 1.00D+00 ElMax1= 6.54D-01 ElMax1N= 6.54D-01
 OrtVc1:  Ph=3 IOff=     0 NNewB=    30 IAdd=    37 IPass= 1 DotMx2= 5.28D-09
 OrtVc1:  Ph=3 IOff=     0 NNewB=    30 IAdd=    37 IPass= 2 DotMx2= 7.19D-17
 OrtVc1:  IOff=     0 IS=    31 I=    37 K1=T IndO=    37 NNew1=     7 Dot= 1.00D+00 DotN= 1.00D+00 ElMax1= 5.50D-01 ElMax1N= 5.50D-01
 OrtVc1:  Ph=3 IOff=     0 NNewB=    30 IAdd=    38 IPass= 1 DotMx2= 5.28D-09
 OrtVc1:  Ph=3 IOff=     0 NNewB=    30 IAdd=    38 IPass= 2 DotMx2= 1.16D-16
 OrtVc1:  IOff=     0 IS=    31 I=    38 K1=T IndO=    38 NNew1=     8 Dot= 1.00D+00 DotN= 1.00D+00 ElMax1= 5.50D-01 ElMax1N= 5.50D-01
 OrtVc1:  Ph=3 IOff=     0 NNewB=    30 IAdd=    39 IPass= 1 DotMx2= 4.37D-16
 OrtVc1:  IOff=     0 IS=    31 I=    39 K1=T IndO=    39 NNew1=     9 Dot= 1.00D+00 DotN= 1.00D+00 ElMax1= 4.09D-01 ElMax1N= 4.09D-01
 OrtVc1:  Ph=3 IOff=     0 NNewB=    30 IAdd=    40 IPass= 1 DotMx2= 4.83D-16
 OrtVc1:  IOff=     0 IS=    31 I=    40 K1=T IndO=    40 NNew1=    10 Dot= 1.00D+00 DotN= 1.00D+00 ElMax1= 6.24D-01 ElMax1N= 6.24D-01
 OrtVc1:  Ph=3 IOff=     0 NNewB=    30 IAdd=    41 IPass= 1 DotMx2= 5.19D-16
 OrtVc1:  IOff=     0 IS=    31 I=    41 K1=T IndO=    41 NNew1=    11 Dot= 1.00D+00 DotN= 1.00D+00 ElMax1= 6.62D-01 ElMax1N= 6.62D-01
 OrtVc1:  Ph=3 IOff=     0 NNewB=    30 IAdd=    42 IPass= 1 DotMx2= 1.89D-14
 OrtVc1:  IOff=     0 IS=    31 I=    42 K1=T IndO=    42 NNew1=    12 Dot= 1.00D+00 DotN= 1.00D+00 ElMax1= 6.62D-01 ElMax1N= 6.62D-01
 OrtVc1:  Ph=3 IOff=     0 NNewB=    30 IAdd=    43 IPass= 1 DotMx2= 7.45D-14
 OrtVc1:  IOff=     0 IS=    31 I=    43 K1=T IndO=    43 NNew1=    13 Dot= 1.00D+00 DotN= 1.00D+00 ElMax1= 4.97D-01 ElMax1N= 4.97D-01
 OrtVc1:  Ph=3 IOff=     0 NNewB=    30 IAdd=    44 IPass= 1 DotMx2= 5.09D-14
 OrtVc1:  IOff=     0 IS=    31 I=    44 K1=T IndO=    44 NNew1=    14 Dot= 1.00D+00 DotN= 1.00D+00 ElMax1= 4.97D-01 ElMax1N= 4.97D-01
 OrtVc1:  Ph=3 IOff=     0 NNewB=    30 IAdd=    45 IPass= 1 DotMx2= 4.83D-08
 OrtVc1:  Ph=3 IOff=     0 NNewB=    30 IAdd=    45 IPass= 2 DotMx2= 1.90D-17
 OrtVc1:  IOff=     0 IS=    31 I=    45 K1=T IndO=    45 NNew1=    15 Dot= 1.00D+00 DotN= 1.00D+00 ElMax1= 4.97D-01 ElMax1N= 4.97D-01
 OrtVc1:  Ph=3 IOff=     0 NNewB=    30 IAdd=    46 IPass= 1 DotMx2= 4.83D-08
 OrtVc1:  Ph=3 IOff=     0 NNewB=    30 IAdd=    46 IPass= 2 DotMx2= 1.96D-17
 OrtVc1:  IOff=     0 IS=    31 I=    46 K1=T IndO=    46 NNew1=    16 Dot= 1.00D+00 DotN= 1.00D+00 ElMax1= 4.97D-01 ElMax1N= 4.97D-01
 OrtVc1:  Ph=3 IOff=     0 NNewB=    30 IAdd=    47 IPass= 1 DotMx2= 7.23D-09
 OrtVc1:  Ph=3 IOff=     0 NNewB=    30 IAdd=    47 IPass= 2 DotMx2= 2.83D-17
 OrtVc1:  IOff=     0 IS=    31 I=    47 K1=T IndO=    47 NNew1=    17 Dot= 1.00D+00 DotN= 1.00D+00 ElMax1= 6.59D-01 ElMax1N= 6.59D-01
 OrtVc1:  Ph=3 IOff=     0 NNewB=    30 IAdd=    48 IPass= 1 DotMx2= 7.23D-09
 OrtVc1:  Ph=3 IOff=     0 NNewB=    30 IAdd=    48 IPass= 2 DotMx2= 1.46D-17
 OrtVc1:  IOff=     0 IS=    31 I=    48 K1=T IndO=    48 NNew1=    18 Dot= 1.00D+00 DotN= 1.00D+00 ElMax1= 6.59D-01 ElMax1N= 6.59D-01
 OrtVc1:  Ph=3 IOff=     0 NNewB=    30 IAdd=    49 IPass= 1 DotMx2= 1.80D-13
 OrtVc1:  IOff=     0 IS=    31 I=    49 K1=T IndO=    49 NNew1=    19 Dot= 1.00D+00 DotN= 1.00D+00 ElMax1= 4.67D-01 ElMax1N= 4.67D-01
 OrtVc1:  Ph=3 IOff=     0 NNewB=    30 IAdd=    50 IPass= 1 DotMx2= 9.33D-14
 OrtVc1:  IOff=     0 IS=    31 I=    50 K1=T IndO=    50 NNew1=    20 Dot= 1.00D+00 DotN= 1.00D+00 ElMax1= 3.37D-01 ElMax1N= 3.37D-01
 OrtVc1:  Ph=3 IOff=     0 NNewB=    30 IAdd=    51 IPass= 1 DotMx2= 1.14D-13
 OrtVc1:  IOff=     0 IS=    31 I=    51 K1=T IndO=    51 NNew1=    21 Dot= 1.00D+00 DotN= 1.00D+00 ElMax1= 3.37D-01 ElMax1N= 3.37D-01
 OrtVc1:  Ph=3 IOff=     0 NNewB=    30 IAdd=    52 IPass= 1 DotMx2= 8.11D-08
 OrtVc1:  Ph=3 IOff=     0 NNewB=    30 IAdd=    52 IPass= 2 DotMx2= 1.37D-17
 OrtVc1:  IOff=     0 IS=    31 I=    52 K1=T IndO=    52 NNew1=    22 Dot= 1.00D+00 DotN= 1.00D+00 ElMax1= 6.05D-01 ElMax1N= 6.05D-01
 OrtVc1:  Ph=3 IOff=     0 NNewB=    30 IAdd=    53 IPass= 1 DotMx2= 8.11D-08
 OrtVc1:  Ph=3 IOff=     0 NNewB=    30 IAdd=    53 IPass= 2 DotMx2= 3.62D-17
 OrtVc1:  IOff=     0 IS=    31 I=    53 K1=T IndO=    53 NNew1=    23 Dot= 1.00D+00 DotN= 1.00D+00 ElMax1= 6.05D-01 ElMax1N= 6.05D-01
 OrtVc1:  Ph=3 IOff=     0 NNewB=    30 IAdd=    54 IPass= 1 DotMx2= 1.23D-14
 OrtVc1:  IOff=     0 IS=    31 I=    54 K1=T IndO=    54 NNew1=    24 Dot= 1.00D+00 DotN= 1.00D+00 ElMax1= 5.53D-01 ElMax1N= 5.53D-01
 OrtVc1:  Ph=3 IOff=     0 NNewB=    30 IAdd=    55 IPass= 1 DotMx2= 5.70D-14
 OrtVc1:  IOff=     0 IS=    31 I=    55 K1=T IndO=    55 NNew1=    25 Dot= 1.00D+00 DotN= 1.00D+00 ElMax1= 6.61D-01 ElMax1N= 6.61D-01
 OrtVc1:  Ph=3 IOff=     0 NNewB=    30 IAdd=    56 IPass= 1 DotMx2= 1.16D-13
 OrtVc1:  IOff=     0 IS=    31 I=    56 K1=T IndO=    56 NNew1=    26 Dot= 1.00D+00 DotN= 1.00D+00 ElMax1= 6.61D-01 ElMax1N= 6.61D-01
 OrtVc1:  Ph=3 IOff=     0 NNewB=    30 IAdd=    57 IPass= 1 DotMx2= 1.51D-13
 OrtVc1:  IOff=     0 IS=    31 I=    57 K1=T IndO=    57 NNew1=    27 Dot= 1.00D+00 DotN= 1.00D+00 ElMax1= 3.78D-01 ElMax1N= 3.78D-01
 OrtVc1:  Ph=3 IOff=     0 NNewB=    30 IAdd=    58 IPass= 1 DotMx2= 9.04D-13
 OrtVc1:  IOff=     0 IS=    31 I=    58 K1=T IndO=    58 NNew1=    28 Dot= 1.00D+00 DotN= 1.00D+00 ElMax1= 4.77D-01 ElMax1N= 4.77D-01
 OrtVc1:  Ph=3 IOff=     0 NNewB=    30 IAdd=    59 IPass= 1 DotMx2= 1.97D-09
 OrtVc1:  Ph=3 IOff=     0 NNewB=    30 IAdd=    59 IPass= 2 DotMx2= 2.19D-17
 OrtVc1:  IOff=     0 IS=    31 I=    59 K1=T IndO=    59 NNew1=    29 Dot= 1.00D+00 DotN= 1.00D+00 ElMax1= 4.77D-01 ElMax1N= 4.77D-01
 OrtVc1:  Ph=3 IOff=     0 NNewB=    30 IAdd=    60 IPass= 1 DotMx2= 1.97D-09
 OrtVc1:  Ph=3 IOff=     0 NNewB=    30 IAdd=    60 IPass= 2 DotMx2= 5.38D-17
 OrtVc1:  IOff=     0 IS=    31 I=    60 K1=T IndO=    60 NNew1=    30 Dot= 1.00D+00 DotN= 1.00D+00 ElMax1= 4.77D-01 ElMax1N= 4.77D-01
 OrtVc1:  Ph=2 IOff=    60 IPass= 1 DotMx1= 9.74D-07
 OrtVc1:  Ph=2 IOff=    60 IPass= 2 DotMx1= 4.66D-17
 OrtVc1:  IOff=     0 IS=    61 I=    61 K1=T IndO=    61 NNew1=     1 Dot= 1.00D+00 DotN= 1.00D+00 ElMax1= 5.09D-01 ElMax1N= 5.09D-01
 OrtVc1:  Ph=3 IOff=     0 NNewB=    60 IAdd=    62 IPass= 1 DotMx2= 7.35D-17
 OrtVc1:  IOff=     0 IS=    61 I=    62 K1=T IndO=    62 NNew1=     2 Dot= 1.00D+00 DotN= 1.00D+00 ElMax1= 5.09D-01 ElMax1N= 5.09D-01
 OrtVc1:  Ph=3 IOff=     0 NNewB=    60 IAdd=    63 IPass= 1 DotMx2= 1.18D-08
 OrtVc1:  Ph=3 IOff=     0 NNewB=    60 IAdd=    63 IPass= 2 DotMx2= 9.20D-18
 OrtVc1:  IOff=     0 IS=    61 I=    63 K1=T IndO=    63 NNew1=     3 Dot= 1.00D+00 DotN= 1.00D+00 ElMax1= 5.08D-01 ElMax1N= 5.08D-01
 OrtVc1:  Ph=3 IOff=     0 NNewB=    60 IAdd=    64 IPass= 1 DotMx2= 1.18D-08
 OrtVc1:  Ph=3 IOff=     0 NNewB=    60 IAdd=    64 IPass= 2 DotMx2= 4.04D-18
 OrtVc1:  IOff=     0 IS=    61 I=    64 K1=T IndO=    64 NNew1=     4 Dot= 1.00D+00 DotN= 1.00D+00 ElMax1= 5.08D-01 ElMax1N= 5.08D-01
 OrtVc1:  Ph=3 IOff=     0 NNewB=    60 IAdd=    65 IPass= 1 DotMx2= 0.00D+00
 OrtVc1:  IOff=     0 IS=    61 I=    65 K1=T IndO=    65 NNew1=     5 Dot= 1.00D+00 DotN= 1.00D+00 ElMax1= 3.90D-01 ElMax1N= 3.90D-01
 OrtVc1:  Ph=3 IOff=     0 NNewB=    60 IAdd=    66 IPass= 1 DotMx2= 9.81D-16
 OrtVc1:  IOff=     0 IS=    61 I=    66 K1=T IndO=    66 NNew1=     6 Dot= 1.00D+00 DotN= 1.00D+00 ElMax1= 6.18D-01 ElMax1N= 6.18D-01
 OrtVc1:  Ph=3 IOff=     0 NNewB=    60 IAdd=    67 IPass= 1 DotMx2= 3.23D-09
 OrtVc1:  Ph=3 IOff=     0 NNewB=    60 IAdd=    67 IPass= 2 DotMx2= 1.31D-17
 OrtVc1:  IOff=     0 IS=    61 I=    67 K1=T IndO=    67 NNew1=     7 Dot= 1.00D+00 DotN= 1.00D+00 ElMax1= 3.47D-01 ElMax1N= 3.47D-01
 OrtVc1:  Ph=3 IOff=     0 NNewB=    60 IAdd=    68 IPass= 1 DotMx2= 3.23D-09
 OrtVc1:  Ph=3 IOff=     0 NNewB=    60 IAdd=    68 IPass= 2 DotMx2= 1.31D-17
 OrtVc1:  IOff=     0 IS=    61 I=    68 K1=T IndO=    68 NNew1=     8 Dot= 1.00D+00 DotN= 1.00D+00 ElMax1= 3.47D-01 ElMax1N= 3.47D-01
 OrtVc1:  Ph=3 IOff=     0 NNewB=    60 IAdd=    69 IPass= 1 DotMx2= 6.07D-17
 OrtVc1:  IOff=     0 IS=    61 I=    69 K1=T IndO=    69 NNew1=     9 Dot= 1.00D+00 DotN= 1.00D+00 ElMax1= 4.13D-01 ElMax1N= 4.13D-01
 OrtVc1:  Ph=3 IOff=     0 NNewB=    60 IAdd=    70 IPass= 1 DotMx2= 3.98D-09
 OrtVc1:  Ph=3 IOff=     0 NNewB=    60 IAdd=    70 IPass= 2 DotMx2= 1.20D-17
 OrtVc1:  IOff=     0 IS=    61 I=    70 K1=T IndO=    70 NNew1=    10 Dot= 1.00D+00 DotN= 1.00D+00 ElMax1= 6.39D-01 ElMax1N= 6.39D-01
 OrtVc1:  Ph=3 IOff=     0 NNewB=    60 IAdd=    71 IPass= 1 DotMx2= 3.98D-09
 OrtVc1:  Ph=3 IOff=     0 NNewB=    60 IAdd=    71 IPass= 2 DotMx2= 1.64D-17
 OrtVc1:  IOff=     0 IS=    61 I=    71 K1=T IndO=    71 NNew1=    11 Dot= 1.00D+00 DotN= 1.00D+00 ElMax1= 6.39D-01 ElMax1N= 6.39D-01
 OrtVc1:  Ph=3 IOff=     0 NNewB=    60 IAdd=    72 IPass= 1 DotMx2= 6.21D-16
 OrtVc1:  IOff=     0 IS=    61 I=    72 K1=T IndO=    72 NNew1=    12 Dot= 1.00D+00 DotN= 1.00D+00 ElMax1= 5.16D-01 ElMax1N= 5.16D-01
 OrtVc1:  Ph=3 IOff=     0 NNewB=    60 IAdd=    73 IPass= 1 DotMx2= 1.18D-08
 OrtVc1:  Ph=3 IOff=     0 NNewB=    60 IAdd=    73 IPass= 2 DotMx2= 1.93D-17
 OrtVc1:  IOff=     0 IS=    61 I=    73 K1=T IndO=    73 NNew1=    13 Dot= 1.00D+00 DotN= 1.00D+00 ElMax1= 5.14D-01 ElMax1N= 5.14D-01
 OrtVc1:  Ph=3 IOff=     0 NNewB=    60 IAdd=    74 IPass= 1 DotMx2= 1.18D-08
 OrtVc1:  Ph=3 IOff=     0 NNewB=    60 IAdd=    74 IPass= 2 DotMx2= 3.91D-17
 OrtVc1:  IOff=     0 IS=    61 I=    74 K1=T IndO=    74 NNew1=    14 Dot= 1.00D+00 DotN= 1.00D+00 ElMax1= 5.14D-01 ElMax1N= 5.14D-01
 OrtVc1:  Ph=3 IOff=     0 NNewB=    60 IAdd=    75 IPass= 1 DotMx2= 5.29D-09
 OrtVc1:  Ph=3 IOff=     0 NNewB=    60 IAdd=    75 IPass= 2 DotMx2= 7.06D-17
 OrtVc1:  IOff=     0 IS=    61 I=    75 K1=T IndO=    75 NNew1=    15 Dot= 1.00D+00 DotN= 1.00D+00 ElMax1= 5.10D-01 ElMax1N= 5.10D-01
 OrtVc1:  Ph=3 IOff=     0 NNewB=    60 IAdd=    76 IPass= 1 DotMx2= 5.29D-09
 OrtVc1:  Ph=3 IOff=     0 NNewB=    60 IAdd=    76 IPass= 2 DotMx2= 1.73D-17
 OrtVc1:  IOff=     0 IS=    61 I=    76 K1=T IndO=    76 NNew1=    16 Dot= 1.00D+00 DotN= 1.00D+00 ElMax1= 5.10D-01 ElMax1N= 5.10D-01
 OrtVc1:  Ph=3 IOff=     0 NNewB=    60 IAdd=    77 IPass= 1 DotMx2= 3.57D-16
 OrtVc1:  IOff=     0 IS=    61 I=    77 K1=T IndO=    77 NNew1=    17 Dot= 1.00D+00 DotN= 1.00D+00 ElMax1= 6.01D-01 ElMax1N= 6.01D-01
 OrtVc1:  Ph=3 IOff=     0 NNewB=    60 IAdd=    78 IPass= 1 DotMx2= 1.43D-07
 OrtVc1:  Ph=3 IOff=     0 NNewB=    60 IAdd=    78 IPass= 2 DotMx2= 4.03D-17
 OrtVc1:  IOff=     0 IS=    61 I=    78 K1=T IndO=    78 NNew1=    18 Dot= 1.00D+00 DotN= 1.00D+00 ElMax1= 6.81D-01 ElMax1N= 6.81D-01
 OrtVc1:  Ph=3 IOff=     0 NNewB=    60 IAdd=    79 IPass= 1 DotMx2= 1.43D-07
 OrtVc1:  Ph=3 IOff=     0 NNewB=    60 IAdd=    79 IPass= 2 DotMx2= 8.42D-17
 OrtVc1:  IOff=     0 IS=    61 I=    79 K1=T IndO=    79 NNew1=    19 Dot= 1.00D+00 DotN= 1.00D+00 ElMax1= 6.81D-01 ElMax1N= 6.81D-01
 OrtVc1:  Ph=3 IOff=     0 NNewB=    60 IAdd=    80 IPass= 1 DotMx2= 3.94D-10
 OrtVc1:  Ph=3 IOff=     0 NNewB=    60 IAdd=    80 IPass= 2 DotMx2= 2.27D-17
 OrtVc1:  IOff=     0 IS=    61 I=    80 K1=T IndO=    80 NNew1=    20 Dot= 1.00D+00 DotN= 1.00D+00 ElMax1= 5.20D-01 ElMax1N= 5.20D-01
 New state      1 was old state      3
 New state      2 was old state      1
 New state      3 was old state      2
 New state      5 was old state      6
 New state      6 was old state      7
 New state      7 was old state      9
 New state      9 was old state     11
 New state     11 was old state     14
 New state     12 was old state     15
 New state     14 was old state     12
 New state     15 was old state     17
 New state     17 was old state     18
 New state     18 was old state     19
 New state     19 was old state     20
 New state     20 was old state     21
 Excitation Energies [eV] at current iteration:
 Root      1 :     6.506588940585506
 Root      2 :     6.580450157523126
 Root      3 :     6.580450157523165
 Root      4 :     6.758335531768803
 Root      5 :     6.758335531768821
 Root      6 :     7.163951489872404
 Root      7 :     7.895710264139455
 Root      8 :     7.895710264139463
 Root      9 :     8.305776211699243
 Root     10 :     8.989776742783587
 Root     11 :     9.047527082850499
 Root     12 :     9.047527082850527
 Root     13 :     9.141041120059624
 Root     14 :     9.141041120059626
 Root     15 :    10.090988268706200
 Root     16 :    10.090988268706210
 Root     17 :    10.435545233022100
 Root     18 :    10.689696337423970
 Root     19 :    11.395782653951620
 Root     20 :    11.395782653951730
 Root     21 :    11.607794572338290
 Root     22 :    11.774219855920880
 Root     23 :    11.774219855920900
 Root     24 :    12.220775999912470
 Root     25 :    12.232912192060700
 Root     26 :    12.232912192060700
 Root     27 :    12.321798835014160
 Root     28 :    12.967817154136820
 Root     29 :    12.967817154137160
 Root     30 :    13.103356514322420
 Root     31 :    13.785734251180300
 Root     32 :    13.785734251180300
 Root     33 :    14.728975377563060
 Root     34 :    14.728975377563200
 Root     35 :    14.828275579382120
 Root     36 :    15.874194097277540
 Root     37 :    16.743217950831080
 Root     38 :    16.743217950831460
 Root     39 :    17.228012812981540
 Root     40 :    18.485758891779240
 Root     41 :    20.157575469069920
 Root     42 :    20.157575469070130
 Root     43 :    20.344030756194180
 Root     44 :    20.344030756194190
 Root     45 :    20.417802368654990
 Root     46 :    20.417802368655030
 Root     47 :    21.511397519213010
 Root     48 :    21.511397519213040
 Root     49 :    21.696875852025780
 Root     50 :    21.725886069940490
 Root     51 :    21.725886069940520
 Root     52 :    21.973512122301770
 Root     53 :    21.973512122301890
 Root     54 :    23.026218636565460
 Root     55 :    24.661667648019730
 Root     56 :    24.661667648019940
 Root     57 :    24.974406338044240
 Root     58 :    25.618848082966520
 Root     59 :    25.625521829998740
 Root     60 :    25.625521829998750
 Root     61 :    25.738297019414030
 Root     62 :    25.738297019414080
 Root     63 :    26.420951884407010
 Root     64 :    26.420951884407110
 Root     65 :    26.677123522440350
 Root     66 :    26.818592375458520
 Root     67 :    26.883055758455250
 Root     68 :    26.883055758455280
 Root     69 :    27.294622478810790
 Root     70 :    27.351772200633340
 Root     71 :    27.351772200633670
 Root     72 :    28.518129336551890
 Root     73 :    28.610723289266600
 Root     74 :    28.610723289266640
 Root     75 :    29.041296685788090
 Root     76 :    29.041296685788130
 Root     77 :    29.218224741192400
 Root     78 :    30.527828532945240
 Root     79 :    30.527828532945610
 Root     80 :    33.009276481239840
 OrtVec:  Test1= 1.00D+00 Test2= 1.00D-08
 OrtVec:  NIn=     80 NOld=     80 NBNew=     80 NBOld=    160
 OrtVc1:  Ph=1 IOff=     0 IPass= 1 DotMx1= 2.92D-01
 OrtVc1:  Ph=1 IOff=     0 IPass= 2 DotMx1= 1.20D-16
 OrtVc1:  Ph=2 IOff=     0 IPass= 1 DotMx1= 0.00D+00
 OrtVc1:  IOff=     0 IS=     1 I=     1 K1=T IndO=     1 NNew1=     1 Dot= 9.51D-05 DotN= 9.51D-05 ElMax1= 4.75D-03 ElMax1N= 4.75D-03
 OrtVc1:  Ph=3 IOff=     0 NNewB=     0 IAdd=     2 IPass= 1 DotMx2= 5.81D-21
 OrtVc1:  IOff=     0 IS=     1 I=     2 K1=T IndO=     2 NNew1=     2 Dot= 2.16D-05 DotN= 2.16D-05 ElMax1= 2.22D-03 ElMax1N= 2.22D-03
 OrtVc1:  Ph=3 IOff=     0 NNewB=     0 IAdd=     3 IPass= 1 DotMx2= 2.16D-18
 OrtVc1:  IOff=     0 IS=     1 I=     3 K1=T IndO=     3 NNew1=     3 Dot= 2.16D-05 DotN= 2.16D-05 ElMax1= 2.22D-03 ElMax1N= 2.22D-03
 OrtVc1:  Ph=3 IOff=     0 NNewB=     0 IAdd=     4 IPass= 1 DotMx2= 8.66D-16
 OrtVc1:  IOff=     0 IS=     1 I=     4 K1=T IndO=     4 NNew1=     4 Dot= 2.40D-04 DotN= 2.40D-04 ElMax1= 6.19D-03 ElMax1N= 6.19D-03
 OrtVc1:  Ph=3 IOff=     0 NNewB=     0 IAdd=     5 IPass= 1 DotMx2= 3.02D-15
 OrtVc1:  IOff=     0 IS=     1 I=     5 K1=T IndO=     5 NNew1=     5 Dot= 2.40D-04 DotN= 2.40D-04 ElMax1= 6.19D-03 ElMax1N= 6.19D-03
 OrtVc1:  Ph=3 IOff=     0 NNewB=     0 IAdd=     6 IPass= 1 DotMx2= 2.52D-16
 OrtVc1:  IOff=     0 IS=     1 I=     6 K1=T IndO=     6 NNew1=     6 Dot= 1.61D-04 DotN= 1.61D-04 ElMax1= 6.01D-03 ElMax1N= 6.01D-03
 OrtVc1:  Ph=3 IOff=     0 NNewB=     0 IAdd=     7 IPass= 1 DotMx2= 6.37D-03
 OrtVc1:  Ph=3 IOff=     0 NNewB=     0 IAdd=     7 IPass= 2 DotMx2= 8.02D-19
 OrtVc1:  IOff=     0 IS=     1 I=     7 K1=T IndO=     7 NNew1=     7 Dot= 4.24D-04 DotN= 4.24D-04 ElMax1= 5.47D-03 ElMax1N= 5.47D-03
 OrtVc1:  Ph=3 IOff=     0 NNewB=     0 IAdd=     8 IPass= 1 DotMx2= 6.37D-03
 OrtVc1:  Ph=3 IOff=     0 NNewB=     0 IAdd=     8 IPass= 2 DotMx2= 3.41D-19
 OrtVc1:  IOff=     0 IS=     1 I=     8 K1=T IndO=     8 NNew1=     8 Dot= 4.24D-04 DotN= 4.24D-04 ElMax1= 5.47D-03 ElMax1N= 5.47D-03
 OrtVc1:  Ph=3 IOff=     0 NNewB=     0 IAdd=     9 IPass= 1 DotMx2= 1.08D-02
 OrtVc1:  Ph=3 IOff=     0 NNewB=     0 IAdd=     9 IPass= 2 DotMx2= 1.99D-18
 OrtVc1:  IOff=     0 IS=     1 I=     9 K1=T IndO=     9 NNew1=     9 Dot= 1.20D-03 DotN= 1.20D-03 ElMax1= 9.87D-03 ElMax1N= 9.87D-03
 OrtVc1:  Ph=3 IOff=     0 NNewB=     0 IAdd=    10 IPass= 1 DotMx2= 9.19D-03
 OrtVc1:  Ph=3 IOff=     0 NNewB=     0 IAdd=    10 IPass= 2 DotMx2= 2.22D-18
 OrtVc1:  IOff=     0 IS=     1 I=    10 K1=T IndO=    10 NNew1=    10 Dot= 3.97D-06 DotN= 3.97D-06 ElMax1= 9.87D-04 ElMax1N= 9.87D-04
 OrtVc1:  Ph=3 IOff=     0 NNewB=     0 IAdd=    11 IPass= 1 DotMx2= 3.43D-03
 OrtVc1:  Ph=3 IOff=     0 NNewB=     0 IAdd=    11 IPass= 2 DotMx2= 8.40D-19
 OrtVc1:  IOff=     0 IS=     1 I=    11 K1=T IndO=    11 NNew1=    11 Dot= 6.07D-05 DotN= 6.07D-05 ElMax1= 3.77D-03 ElMax1N= 3.77D-03
 OrtVc1:  Ph=3 IOff=     0 NNewB=     0 IAdd=    12 IPass= 1 DotMx2= 3.43D-03
 OrtVc1:  Ph=3 IOff=     0 NNewB=     0 IAdd=    12 IPass= 2 DotMx2= 3.44D-18
 OrtVc1:  IOff=     0 IS=     1 I=    12 K1=T IndO=    12 NNew1=    12 Dot= 6.07D-05 DotN= 6.07D-05 ElMax1= 3.77D-03 ElMax1N= 3.77D-03
 OrtVc1:  Ph=3 IOff=     0 NNewB=     0 IAdd=    13 IPass= 1 DotMx2= 1.40D-02
 OrtVc1:  Ph=3 IOff=     0 NNewB=     0 IAdd=    13 IPass= 2 DotMx2= 3.25D-18
 OrtVc1:  IOff=     0 IS=     1 I=    13 K1=T IndO=    13 NNew1=    13 Dot= 3.12D-05 DotN= 3.12D-05 ElMax1= 3.20D-03 ElMax1N= 3.20D-03
 OrtVc1:  Ph=3 IOff=     0 NNewB=     0 IAdd=    14 IPass= 1 DotMx2= 1.40D-02
 OrtVc1:  Ph=3 IOff=     0 NNewB=     0 IAdd=    14 IPass= 2 DotMx2= 3.67D-18
 OrtVc1:  IOff=     0 IS=     1 I=    14 K1=T IndO=    14 NNew1=    14 Dot= 3.12D-05 DotN= 3.12D-05 ElMax1= 3.20D-03 ElMax1N= 3.20D-03
 OrtVc1:  Ph=3 IOff=     0 NNewB=     0 IAdd=    15 IPass= 1 DotMx2= 1.82D-02
 OrtVc1:  Ph=3 IOff=     0 NNewB=     0 IAdd=    15 IPass= 2 DotMx2= 1.41D-17
 OrtVc1:  IOff=     0 IS=     1 I=    15 K1=T IndO=    15 NNew1=    15 Dot= 2.51D-04 DotN= 2.51D-04 ElMax1= 4.08D-03 ElMax1N= 4.08D-03
 OrtVc1:  Ph=3 IOff=     0 NNewB=     0 IAdd=    16 IPass= 1 DotMx2= 1.82D-02
 OrtVc1:  Ph=3 IOff=     0 NNewB=     0 IAdd=    16 IPass= 2 DotMx2= 7.24D-18
 OrtVc1:  IOff=     0 IS=     1 I=    16 K1=T IndO=    16 NNew1=    16 Dot= 2.51D-04 DotN= 2.51D-04 ElMax1= 4.08D-03 ElMax1N= 4.08D-03
 OrtVc1:  Ph=3 IOff=     0 NNewB=     0 IAdd=    17 IPass= 1 DotMx2= 1.40D-02
 OrtVc1:  Ph=3 IOff=     0 NNewB=     0 IAdd=    17 IPass= 2 DotMx2= 3.90D-18
 OrtVc1:  IOff=     0 IS=     1 I=    17 K1=T IndO=    17 NNew1=    17 Dot= 1.98D-04 DotN= 1.98D-04 ElMax1= 3.79D-03 ElMax1N= 3.79D-03
 OrtVc1:  Ph=3 IOff=     0 NNewB=     0 IAdd=    18 IPass= 1 DotMx2= 1.28D-02
 OrtVc1:  Ph=3 IOff=     0 NNewB=     0 IAdd=    18 IPass= 2 DotMx2= 6.55D-18
 OrtVc1:  IOff=     0 IS=     1 I=    18 K1=T IndO=    18 NNew1=    18 Dot= 1.11D-04 DotN= 1.11D-04 ElMax1= 3.33D-03 ElMax1N= 3.33D-03
 OrtVc1:  Ph=3 IOff=     0 NNewB=     0 IAdd=    19 IPass= 1 DotMx2= 1.33D-02
 OrtVc1:  Ph=3 IOff=     0 NNewB=     0 IAdd=    19 IPass= 2 DotMx2= 1.20D-17
 OrtVc1:  IOff=     0 IS=     1 I=    19 K1=T IndO=    19 NNew1=    19 Dot= 1.80D-04 DotN= 1.80D-04 ElMax1= 4.31D-03 ElMax1N= 4.31D-03
 OrtVc1:  Ph=3 IOff=     0 NNewB=     0 IAdd=    20 IPass= 1 DotMx2= 1.33D-02
 OrtVc1:  Ph=3 IOff=     0 NNewB=     0 IAdd=    20 IPass= 2 DotMx2= 2.23D-18
 OrtVc1:  IOff=     0 IS=     1 I=    20 K1=T IndO=    20 NNew1=    20 Dot= 1.80D-04 DotN= 1.80D-04 ElMax1= 4.31D-03 ElMax1N= 4.31D-03
 OrtVc1:  Ph=3 IOff=     0 NNewB=     0 IAdd=    21 IPass= 1 DotMx2= 3.81D-02
 OrtVc1:  Ph=3 IOff=     0 NNewB=     0 IAdd=    21 IPass= 2 DotMx2= 1.70D-17
 OrtVc1:  IOff=     0 IS=     1 I=    21 K1=T IndO=    21 NNew1=    21 Dot= 1.32D-04 DotN= 1.32D-04 ElMax1= 4.34D-03 ElMax1N= 4.34D-03
 OrtVc1:  Ph=3 IOff=     0 NNewB=     0 IAdd=    22 IPass= 1 DotMx2= 5.90D-03
 OrtVc1:  Ph=3 IOff=     0 NNewB=     0 IAdd=    22 IPass= 2 DotMx2= 1.53D-18
 OrtVc1:  IOff=     0 IS=     1 I=    22 K1=T IndO=    22 NNew1=    22 Dot= 4.15D-06 DotN= 4.15D-06 ElMax1= 6.23D-04 ElMax1N= 6.23D-04
 OrtVc1:  Ph=3 IOff=     0 NNewB=     0 IAdd=    23 IPass= 1 DotMx2= 5.90D-03
 OrtVc1:  Ph=3 IOff=     0 NNewB=     0 IAdd=    23 IPass= 2 DotMx2= 4.27D-18
 OrtVc1:  IOff=     0 IS=     1 I=    23 K1=T IndO=    23 NNew1=    23 Dot= 4.15D-06 DotN= 4.15D-06 ElMax1= 6.23D-04 ElMax1N= 6.23D-04
 OrtVc1:  Ph=3 IOff=     0 NNewB=     0 IAdd=    24 IPass= 1 DotMx2= 3.43D-03
 OrtVc1:  Ph=3 IOff=     0 NNewB=     0 IAdd=    24 IPass= 2 DotMx2= 5.55D-19
 OrtVc1:  IOff=     0 IS=     1 I=    24 K1=T IndO=    24 NNew1=    24 Dot= 1.85D-08 DotN= 1.85D-08 ElMax1= 6.80D-05 ElMax1N= 6.80D-05
 OrtVc1:  Ph=3 IOff=     0 NNewB=     0 IAdd=    25 IPass= 1 DotMx2= 5.93D-03
 OrtVc1:  Ph=3 IOff=     0 NNewB=     0 IAdd=    25 IPass= 2 DotMx2= 1.70D-18
 OrtVc1:  IOff=     0 IS=     1 I=    25 K1=T IndO=    25 NNew1=    25 Dot= 2.91D-06 DotN= 2.91D-06 ElMax1= 8.63D-04 ElMax1N= 8.63D-04
 OrtVc1:  Ph=3 IOff=     0 NNewB=     0 IAdd=    26 IPass= 1 DotMx2= 5.93D-03
 OrtVc1:  Ph=3 IOff=     0 NNewB=     0 IAdd=    26 IPass= 2 DotMx2= 1.61D-18
 OrtVc1:  IOff=     0 IS=     1 I=    26 K1=T IndO=    26 NNew1=    26 Dot= 2.91D-06 DotN= 2.91D-06 ElMax1= 8.63D-04 ElMax1N= 8.63D-04
 OrtVc1:  Ph=3 IOff=     0 NNewB=     0 IAdd=    27 IPass= 1 DotMx2= 8.64D-03
 OrtVc1:  Ph=3 IOff=     0 NNewB=     0 IAdd=    27 IPass= 2 DotMx2= 4.98D-18
 OrtVc1:  IOff=     0 IS=     1 I=    27 K1=T IndO=    27 NNew1=    27 Dot= 1.89D-05 DotN= 1.89D-05 ElMax1= 1.63D-03 ElMax1N= 1.63D-03
 OrtVc1:  Ph=3 IOff=     0 NNewB=     0 IAdd=    28 IPass= 1 DotMx2= 1.86D-02
 OrtVc1:  Ph=3 IOff=     0 NNewB=     0 IAdd=    28 IPass= 2 DotMx2= 1.39D-17
 OrtVc1:  IOff=     0 IS=     1 I=    28 K1=T IndO=    28 NNew1=    28 Dot= 7.48D-05 DotN= 7.48D-05 ElMax1= 3.99D-03 ElMax1N= 3.99D-03
 OrtVc1:  Ph=3 IOff=     0 NNewB=     0 IAdd=    29 IPass= 1 DotMx2= 1.86D-02
 OrtVc1:  Ph=3 IOff=     0 NNewB=     0 IAdd=    29 IPass= 2 DotMx2= 2.83D-18
 OrtVc1:  IOff=     0 IS=     1 I=    29 K1=T IndO=    29 NNew1=    29 Dot= 7.48D-05 DotN= 7.48D-05 ElMax1= 3.99D-03 ElMax1N= 3.99D-03
 OrtVc1:  Ph=3 IOff=     0 NNewB=     0 IAdd=    30 IPass= 1 DotMx2= 3.03D-02
 OrtVc1:  Ph=3 IOff=     0 NNewB=     0 IAdd=    30 IPass= 2 DotMx2= 2.14D-17
 OrtVc1:  IOff=     0 IS=     1 I=    30 K1=T IndO=    30 NNew1=    30 Dot= 1.58D-04 DotN= 1.58D-04 ElMax1= 4.61D-03 ElMax1N= 4.61D-03
 OrtVc1:  Ph=2 IOff=    30 IPass= 1 DotMx1= 1.79D-01
 OrtVc1:  Ph=2 IOff=    30 IPass= 2 DotMx1= 7.97D-17
 OrtVc1:  IOff=     0 IS=    31 I=    31 K1=T IndO=    31 NNew1=     1 Dot= 5.72D-05 DotN= 5.72D-05 ElMax1= 3.19D-03 ElMax1N= 3.19D-03
 OrtVc1:  Ph=3 IOff=     0 NNewB=    30 IAdd=    32 IPass= 1 DotMx2= 1.10D-17
 OrtVc1:  IOff=     0 IS=    31 I=    32 K1=T IndO=    32 NNew1=     2 Dot= 5.72D-05 DotN= 5.72D-05 ElMax1= 3.19D-03 ElMax1N= 3.19D-03
 OrtVc1:  Ph=3 IOff=     0 NNewB=    30 IAdd=    33 IPass= 1 DotMx2= 4.97D-03
 OrtVc1:  Ph=3 IOff=     0 NNewB=    30 IAdd=    33 IPass= 2 DotMx2= 1.21D-18
 OrtVc1:  IOff=     0 IS=    31 I=    33 K1=T IndO=    33 NNew1=     3 Dot= 1.36D-04 DotN= 1.36D-04 ElMax1= 3.28D-03 ElMax1N= 3.28D-03
 OrtVc1:  Ph=3 IOff=     0 NNewB=    30 IAdd=    34 IPass= 1 DotMx2= 4.97D-03
 OrtVc1:  Ph=3 IOff=     0 NNewB=    30 IAdd=    34 IPass= 2 DotMx2= 7.78D-19
 OrtVc1:  IOff=     0 IS=    31 I=    34 K1=T IndO=    34 NNew1=     4 Dot= 1.36D-04 DotN= 1.36D-04 ElMax1= 3.28D-03 ElMax1N= 3.28D-03
 OrtVc1:  Ph=3 IOff=     0 NNewB=    30 IAdd=    35 IPass= 1 DotMx2= 5.50D-19
 OrtVc1:  IOff=     0 IS=    31 I=    35 K1=T IndO=    35 NNew1=     5 Dot= 2.85D-04 DotN= 2.85D-04 ElMax1= 6.07D-03 ElMax1N= 6.07D-03
 OrtVc1:  Ph=3 IOff=     0 NNewB=    30 IAdd=    36 IPass= 1 DotMx2= 3.17D-03
 OrtVc1:  Ph=3 IOff=     0 NNewB=    30 IAdd=    36 IPass= 2 DotMx2= 2.63D-19
 OrtVc1:  IOff=     0 IS=    31 I=    36 K1=T IndO=    36 NNew1=     6 Dot= 4.88D-05 DotN= 4.88D-05 ElMax1= 2.96D-03 ElMax1N= 2.96D-03
 OrtVc1:  Ph=3 IOff=     0 NNewB=    30 IAdd=    37 IPass= 1 DotMx2= 1.21D-02
 OrtVc1:  Ph=3 IOff=     0 NNewB=    30 IAdd=    37 IPass= 2 DotMx2= 1.73D-18
 OrtVc1:  IOff=     0 IS=    31 I=    37 K1=T IndO=    37 NNew1=     7 Dot= 6.69D-05 DotN= 6.69D-05 ElMax1= 2.11D-03 ElMax1N= 2.11D-03
 OrtVc1:  Ph=3 IOff=     0 NNewB=    30 IAdd=    38 IPass= 1 DotMx2= 1.21D-02
 OrtVc1:  Ph=3 IOff=     0 NNewB=    30 IAdd=    38 IPass= 2 DotMx2= 2.21D-18
 OrtVc1:  IOff=     0 IS=    31 I=    38 K1=T IndO=    38 NNew1=     8 Dot= 6.69D-05 DotN= 6.69D-05 ElMax1= 2.11D-03 ElMax1N= 2.11D-03
 OrtVc1:  Ph=3 IOff=     0 NNewB=    30 IAdd=    39 IPass= 1 DotMx2= 8.02D-03
 OrtVc1:  Ph=3 IOff=     0 NNewB=    30 IAdd=    39 IPass= 2 DotMx2= 3.68D-19
 OrtVc1:  IOff=     0 IS=    31 I=    39 K1=T IndO=    39 NNew1=     9 Dot= 1.24D-03 DotN= 1.24D-03 ElMax1= 1.17D-02 ElMax1N= 1.17D-02
 OrtVc1:  Ph=3 IOff=     0 NNewB=    30 IAdd=    40 IPass= 1 DotMx2= 1.89D-02
 OrtVc1:  Ph=3 IOff=     0 NNewB=    30 IAdd=    40 IPass= 2 DotMx2= 4.90D-18
 OrtVc1:  IOff=     0 IS=    31 I=    40 K1=T IndO=    40 NNew1=    10 Dot= 1.39D-04 DotN= 1.39D-04 ElMax1= 4.40D-03 ElMax1N= 4.40D-03
 OrtVc1:  Ph=3 IOff=     0 NNewB=    30 IAdd=    41 IPass= 1 DotMx2= 4.37D-17
 OrtVc1:  IOff=     0 IS=    31 I=    41 K1=T IndO=    41 NNew1=    11 Dot= 6.33D-06 DotN= 6.33D-06 ElMax1= 1.03D-03 ElMax1N= 1.03D-03
 OrtVc1:  Ph=3 IOff=     0 NNewB=    30 IAdd=    42 IPass= 1 DotMx2= 2.00D-15
 OrtVc1:  IOff=     0 IS=    31 I=    42 K1=T IndO=    42 NNew1=    12 Dot= 6.33D-06 DotN= 6.33D-06 ElMax1= 1.03D-03 ElMax1N= 1.03D-03
 OrtVc1:  Ph=3 IOff=     0 NNewB=    30 IAdd=    43 IPass= 1 DotMx2= 3.13D-15
 OrtVc1:  IOff=     0 IS=    31 I=    43 K1=T IndO=    43 NNew1=    13 Dot= 6.75D-07 DotN= 6.75D-07 ElMax1= 3.87D-04 ElMax1N= 3.87D-04
 OrtVc1:  Ph=3 IOff=     0 NNewB=    30 IAdd=    44 IPass= 1 DotMx2= 3.26D-15
 OrtVc1:  IOff=     0 IS=    31 I=    44 K1=T IndO=    44 NNew1=    14 Dot= 6.75D-07 DotN= 6.75D-07 ElMax1= 3.87D-04 ElMax1N= 3.87D-04
 OrtVc1:  Ph=3 IOff=     0 NNewB=    30 IAdd=    45 IPass= 1 DotMx2= 5.25D-03
 OrtVc1:  Ph=3 IOff=     0 NNewB=    30 IAdd=    45 IPass= 2 DotMx2= 1.41D-18
 OrtVc1:  IOff=     0 IS=    31 I=    45 K1=T IndO=    45 NNew1=    15 Dot= 7.23D-06 DotN= 7.23D-06 ElMax1= 9.42D-04 ElMax1N= 9.42D-04
 OrtVc1:  Ph=3 IOff=     0 NNewB=    30 IAdd=    46 IPass= 1 DotMx2= 5.25D-03
 OrtVc1:  Ph=3 IOff=     0 NNewB=    30 IAdd=    46 IPass= 2 DotMx2= 1.69D-18
 OrtVc1:  IOff=     0 IS=    31 I=    46 K1=T IndO=    46 NNew1=    16 Dot= 7.23D-06 DotN= 7.23D-06 ElMax1= 9.42D-04 ElMax1N= 9.42D-04
 OrtVc1:  Ph=3 IOff=     0 NNewB=    30 IAdd=    47 IPass= 1 DotMx2= 1.02D-02
 OrtVc1:  Ph=3 IOff=     0 NNewB=    30 IAdd=    47 IPass= 2 DotMx2= 2.54D-18
 OrtVc1:  IOff=     0 IS=    31 I=    47 K1=T IndO=    47 NNew1=    17 Dot= 8.59D-05 DotN= 8.59D-05 ElMax1= 2.80D-03 ElMax1N= 2.80D-03
 OrtVc1:  Ph=3 IOff=     0 NNewB=    30 IAdd=    48 IPass= 1 DotMx2= 1.02D-02
 OrtVc1:  Ph=3 IOff=     0 NNewB=    30 IAdd=    48 IPass= 2 DotMx2= 3.74D-18
 OrtVc1:  IOff=     0 IS=    31 I=    48 K1=T IndO=    48 NNew1=    18 Dot= 8.59D-05 DotN= 8.59D-05 ElMax1= 2.80D-03 ElMax1N= 2.80D-03
 OrtVc1:  IOff=     0 IS=    31 I=    49 K1=F IndO=     0 NNew1=    18 Dot= 7.36D-26 DotN= 7.36D-26 ElMax1= 1.61D-13 ElMax1N= 1.61D-13
 OrtVc1:  Ph=3 IOff=     0 NNewB=    30 IAdd=    50 IPass= 1 DotMx2= 1.78D-03
 OrtVc1:  Ph=3 IOff=     0 NNewB=    30 IAdd=    50 IPass= 2 DotMx2= 2.78D-19
 OrtVc1:  IOff=     0 IS=    31 I=    50 K1=T IndO=    49 NNew1=    19 Dot= 3.48D-06 DotN= 3.48D-06 ElMax1= 5.37D-04 ElMax1N= 5.37D-04
 OrtVc1:  Ph=3 IOff=     0 NNewB=    30 IAdd=    51 IPass= 1 DotMx2= 1.78D-03
 OrtVc1:  Ph=3 IOff=     0 NNewB=    30 IAdd=    51 IPass= 2 DotMx2= 1.35D-19
 OrtVc1:  IOff=     0 IS=    31 I=    51 K1=T IndO=    50 NNew1=    20 Dot= 3.48D-06 DotN= 3.48D-06 ElMax1= 5.37D-04 ElMax1N= 5.37D-04
 OrtVc1:  Ph=3 IOff=     0 NNewB=    30 IAdd=    52 IPass= 1 DotMx2= 3.66D-03
 OrtVc1:  Ph=3 IOff=     0 NNewB=    30 IAdd=    52 IPass= 2 DotMx2= 1.22D-18
 OrtVc1:  IOff=     0 IS=    31 I=    52 K1=T IndO=    51 NNew1=    21 Dot= 6.09D-05 DotN= 6.09D-05 ElMax1= 3.02D-03 ElMax1N= 3.02D-03
 OrtVc1:  Ph=3 IOff=     0 NNewB=    30 IAdd=    53 IPass= 1 DotMx2= 3.66D-03
 OrtVc1:  Ph=3 IOff=     0 NNewB=    30 IAdd=    53 IPass= 2 DotMx2= 6.25D-19
 OrtVc1:  IOff=     0 IS=    31 I=    53 K1=T IndO=    52 NNew1=    22 Dot= 6.09D-05 DotN= 6.09D-05 ElMax1= 3.02D-03 ElMax1N= 3.02D-03
 OrtVc1:  Ph=3 IOff=     0 NNewB=    30 IAdd=    54 IPass= 1 DotMx2= 3.54D-02
 OrtVc1:  Ph=3 IOff=     0 NNewB=    30 IAdd=    54 IPass= 2 DotMx2= 1.53D-18
 OrtVc1:  IOff=     0 IS=    31 I=    54 K1=T IndO=    53 NNew1=    23 Dot= 2.71D-04 DotN= 2.71D-04 ElMax1= 6.02D-03 ElMax1N= 6.02D-03
 OrtVc1:  Ph=3 IOff=     0 NNewB=    30 IAdd=    55 IPass= 1 DotMx2= 3.37D-03
 OrtVc1:  Ph=3 IOff=     0 NNewB=    30 IAdd=    55 IPass= 2 DotMx2= 4.33D-19
 OrtVc1:  IOff=     0 IS=    31 I=    55 K1=T IndO=    54 NNew1=    24 Dot= 2.69D-05 DotN= 2.69D-05 ElMax1= 2.67D-03 ElMax1N= 2.67D-03
 OrtVc1:  Ph=3 IOff=     0 NNewB=    30 IAdd=    56 IPass= 1 DotMx2= 3.37D-03
 OrtVc1:  Ph=3 IOff=     0 NNewB=    30 IAdd=    56 IPass= 2 DotMx2= 3.37D-19
[...]
     30  0.000000D+00  0.000000D+00  0.000000D+00  0.146016D-01  0.000000D+00
     31  0.190808D-01 -0.323934D-01  0.000000D+00  0.000000D+00 -0.792245D-01
     32 -0.330621D-01  0.463965D-01  0.000000D+00  0.000000D+00  0.173369D+00
     33  0.000000D+00  0.000000D+00  0.179851D+00  0.000000D+00  0.000000D+00
     34  0.000000D+00  0.000000D+00  0.000000D+00  0.179851D+00  0.000000D+00
     35  0.109368D+00 -0.222145D+00  0.000000D+00  0.000000D+00 -0.364912D+00
     36 -0.260989D-01  0.179181D-01  0.000000D+00  0.000000D+00 -0.203848D-01
     37  0.000000D+00  0.000000D+00  0.102093D+00  0.000000D+00  0.000000D+00
     38  0.000000D+00  0.000000D+00  0.000000D+00  0.102093D+00  0.000000D+00
     39  0.581559D-01 -0.114903D+00  0.000000D+00  0.000000D+00 -0.163071D+00
     40  0.370508D-02 -0.765969D-02  0.000000D+00  0.000000D+00 -0.834109D-02
     41  0.370508D-02 -0.765969D-02  0.000000D+00  0.000000D+00 -0.834109D-02
     42 -0.774766D-02  0.159182D-01  0.000000D+00  0.000000D+00  0.322299D-01
     43  0.000000D+00  0.000000D+00  0.000000D+00  0.000000D+00  0.000000D+00
     44  0.000000D+00  0.000000D+00 -0.205595D-01  0.000000D+00  0.000000D+00
     45  0.000000D+00  0.000000D+00  0.000000D+00 -0.205595D-01  0.000000D+00
               21            22            23            24            25 
     21  0.278815D+00
     22  0.000000D+00  0.156514D+00
     23  0.000000D+00  0.000000D+00  0.156514D+00
     24 -0.166863D+00  0.000000D+00  0.000000D+00  0.112352D+00
     25 -0.100994D-02  0.000000D+00  0.000000D+00 -0.146956D-02  0.749265D-03
     26 -0.100994D-02  0.000000D+00  0.000000D+00 -0.146956D-02  0.749265D-03
     27  0.581780D-02  0.000000D+00  0.000000D+00 -0.217299D-02 -0.870997D-03
     28  0.000000D+00  0.000000D+00  0.000000D+00  0.000000D+00  0.000000D+00
     29  0.000000D+00  0.692028D-02  0.000000D+00  0.000000D+00  0.000000D+00
     30  0.000000D+00  0.000000D+00  0.692028D-02  0.000000D+00  0.000000D+00
     31  0.232854D-01  0.000000D+00  0.000000D+00 -0.125121D-02  0.476331D-02
     32 -0.589785D-01  0.000000D+00  0.000000D+00  0.201428D-01 -0.944981D-02
     33  0.000000D+00  0.814648D-01  0.000000D+00  0.000000D+00  0.000000D+00
     34  0.000000D+00  0.000000D+00  0.814648D-01  0.000000D+00  0.000000D+00
     35 -0.287080D-01  0.000000D+00  0.000000D+00 -0.698604D-01  0.159292D-01
     36 -0.687650D-02  0.000000D+00  0.000000D+00 -0.513307D-01 -0.385898D-02
     37  0.000000D+00  0.274598D-01  0.000000D+00  0.000000D+00  0.000000D+00
     38  0.000000D+00  0.000000D+00  0.274598D-01  0.000000D+00  0.000000D+00
     39 -0.281357D-01  0.000000D+00  0.000000D+00 -0.295609D-01  0.715363D-02
     40 -0.211818D-02  0.000000D+00  0.000000D+00 -0.189674D-04  0.511727D-03
     41 -0.211818D-02  0.000000D+00  0.000000D+00 -0.189674D-04  0.511727D-03
     42 -0.788017D-03  0.000000D+00  0.000000D+00  0.692243D-02 -0.135826D-02
     43  0.000000D+00  0.000000D+00  0.000000D+00  0.000000D+00  0.000000D+00
     44  0.000000D+00 -0.135973D-01  0.000000D+00  0.000000D+00  0.000000D+00
     45  0.000000D+00  0.000000D+00 -0.135973D-01  0.000000D+00  0.000000D+00
               26            27            28            29            30 
     26  0.749265D-03
     27 -0.870997D-03  0.131171D-02
     28  0.000000D+00  0.000000D+00  0.000000D+00
     29  0.000000D+00  0.000000D+00  0.000000D+00  0.222071D-02
     30  0.000000D+00  0.000000D+00  0.000000D+00  0.000000D+00  0.222071D-02
     31  0.476331D-02 -0.102862D-01  0.000000D+00  0.000000D+00  0.000000D+00
     32 -0.944981D-02  0.173507D-01  0.000000D+00  0.000000D+00  0.000000D+00
     33  0.000000D+00  0.000000D+00  0.000000D+00  0.284415D-01  0.000000D+00
     34  0.000000D+00  0.000000D+00  0.000000D+00  0.000000D+00  0.284415D-01
     35  0.159292D-01 -0.119025D-01  0.000000D+00  0.000000D+00  0.000000D+00
     36 -0.385898D-02  0.157775D-01  0.000000D+00  0.000000D+00  0.000000D+00
     37  0.000000D+00  0.000000D+00  0.000000D+00  0.215631D-01  0.000000D+00
     38  0.000000D+00  0.000000D+00  0.000000D+00  0.000000D+00  0.215631D-01
     39  0.715363D-02 -0.433285D-02  0.000000D+00  0.000000D+00  0.000000D+00
     40  0.511727D-03 -0.653687D-03  0.000000D+00  0.000000D+00  0.000000D+00
     41  0.511727D-03 -0.653687D-03  0.000000D+00  0.000000D+00  0.000000D+00
     42 -0.135826D-02  0.113407D-02  0.000000D+00  0.000000D+00  0.000000D+00
     43  0.000000D+00  0.000000D+00  0.000000D+00  0.000000D+00  0.000000D+00
     44  0.000000D+00  0.000000D+00  0.000000D+00 -0.201538D-02  0.000000D+00
     45  0.000000D+00  0.000000D+00  0.000000D+00  0.000000D+00 -0.201538D-02
               31            32            33            34            35 
     31  0.207995D+01
     32 -0.156322D+00  0.425261D+00
     33  0.000000D+00  0.000000D+00  0.364640D+00
     34  0.000000D+00  0.000000D+00  0.000000D+00  0.364640D+00
     35 -0.376557D-01  0.728947D-01  0.000000D+00  0.000000D+00  0.615641D+00
     36 -0.244661D+00  0.492290D+00  0.000000D+00  0.000000D+00  0.345198D+00
     37  0.000000D+00  0.000000D+00  0.278277D+00  0.000000D+00  0.000000D+00
     38  0.000000D+00  0.000000D+00  0.000000D+00  0.278277D+00  0.000000D+00
     39 -0.378787D-01  0.861952D-01  0.000000D+00  0.000000D+00  0.325125D+00
     40 -0.329134D-02 -0.751723D-02  0.000000D+00  0.000000D+00  0.100397D-01
     41 -0.329134D-02 -0.751723D-02  0.000000D+00  0.000000D+00  0.100397D-01
     42 -0.472135D-02  0.107277D-02  0.000000D+00  0.000000D+00 -0.460048D-01
     43  0.000000D+00  0.000000D+00  0.000000D+00  0.000000D+00  0.000000D+00
     44  0.000000D+00  0.000000D+00 -0.254232D-01  0.000000D+00  0.000000D+00
     45  0.000000D+00  0.000000D+00  0.000000D+00 -0.254232D-01  0.000000D+00
               36            37            38            39            40 
     36  0.702268D+00
     37  0.000000D+00  0.221079D+00
     38  0.000000D+00  0.000000D+00  0.221079D+00
     39  0.232295D+00  0.000000D+00  0.000000D+00  0.177331D+00
     40 -0.435434D-02  0.000000D+00  0.000000D+00  0.437437D-02  0.392061D-03
     41 -0.435434D-02  0.000000D+00  0.000000D+00  0.437437D-02  0.392061D-03
     42 -0.191110D-01  0.000000D+00  0.000000D+00 -0.234967D-01 -0.850206D-03
     43  0.000000D+00  0.000000D+00  0.000000D+00  0.000000D+00  0.000000D+00
     44  0.000000D+00 -0.174149D-01  0.000000D+00  0.000000D+00  0.000000D+00
     45  0.000000D+00  0.000000D+00 -0.174149D-01  0.000000D+00  0.000000D+00
               41            42            43            44            45 
     41  0.392061D-03
     42 -0.850206D-03  0.356872D-02
     43  0.000000D+00  0.000000D+00  0.000000D+00
     44  0.000000D+00  0.000000D+00  0.000000D+00  0.222576D-02
     45  0.000000D+00  0.000000D+00  0.000000D+00  0.000000D+00  0.222576D-02
 
 Excited state symmetry could not be determined.
 Excited State   2:      Singlet-?Sym    6.5792 eV  188.45 nm  f=0.0153  <S**2>=0.000
       7 ->  9         0.20547
       8 ->  9         0.64986
       8 -> 12         0.15756
 
 Excited state symmetry could not be determined.
 Excited State   3:      Singlet-?Sym    6.5792 eV  188.45 nm  f=0.0153  <S**2>=0.000
       7 ->  9         0.64986
       7 -> 12         0.15756
       8 ->  9        -0.20547
 
 Excited state symmetry could not be determined.
 Excited State   4:      Singlet-?Sym    6.7446 eV  183.83 nm  f=0.0000  <S**2>=0.000
       7 -> 10         0.16967
       7 -> 11        -0.34106
       7 -> 15        -0.19302
       7 -> 16         0.10585
       7 -> 17        -0.21278
       8 -> 10        -0.34106
       8 -> 11        -0.16967
       8 -> 14        -0.19302
       8 -> 16        -0.21278
       8 -> 17        -0.10585
 
 Excited state symmetry could not be determined.
 Excited State   5:      Singlet-?Sym    6.7446 eV  183.83 nm  f=0.0000  <S**2>=0.000
       7 -> 10         0.34106
       7 -> 11         0.16967
       7 -> 14         0.19302
       7 -> 16         0.21278
       7 -> 17         0.10585
       8 -> 10         0.16967
       8 -> 11        -0.34106
       8 -> 15        -0.19302
       8 -> 16         0.10585
       8 -> 17        -0.21278
 
 Excited State   6:      Singlet-SG     7.1557 eV  173.27 nm  f=0.0374  <S**2>=0.000
       5 ->  9        -0.15592
       6 ->  9         0.66932
       6 -> 12         0.11647
 
 Excited state symmetry could not be determined.
 Excited State   7:      Singlet-?Sym    7.8690 eV  157.56 nm  f=0.0637  <S**2>=0.000
       6 -> 10         0.50690
       6 -> 11         0.30254
       6 -> 14         0.24711
       6 -> 15         0.14749
       6 -> 16         0.19179
       6 -> 17         0.11447
 
 Excited state symmetry could not be determined.
 Excited State   8:      Singlet-?Sym    7.8690 eV  157.56 nm  f=0.0637  <S**2>=0.000
       6 -> 10         0.30254
       6 -> 11        -0.50690
       6 -> 14         0.14749
       6 -> 15        -0.24711
       6 -> 16         0.11447
       6 -> 17        -0.19179
 
 Excited state symmetry could not be determined.
 Excited State   9:      Singlet-?Sym    8.2386 eV  150.49 nm  f=0.1853  <S**2>=0.000
       7 -> 10         0.49318
       8 -> 11         0.49318
 
 Excited state symmetry could not be determined.
 Excited State  10:      Singlet-?Sym    8.9855 eV  137.98 nm  f=0.0000  <S**2>=0.000
       7 -> 11        -0.35402
       7 -> 15         0.19553
       7 -> 17         0.28448
       8 -> 10         0.35402
       8 -> 14        -0.19553
       8 -> 16        -0.28448
 
 Excited state symmetry could not be determined.
 Excited State  11:      Singlet-?Sym    9.0434 eV  137.10 nm  f=0.0652  <S**2>=0.000
       7 -> 12        -0.35559
       7 -> 13         0.11126
       8 ->  9        -0.12531
       8 -> 12         0.55126
       8 -> 13        -0.17248
 
 Excited state symmetry could not be determined.
 Excited State  12:      Singlet-?Sym    9.0434 eV  137.10 nm  f=0.0652  <S**2>=0.000
       7 ->  9        -0.12531
       7 -> 12         0.55126
       7 -> 13        -0.17248
       8 -> 12         0.35559
       8 -> 13        -0.11126
 
 Excited state symmetry could not be determined.
 Excited State  13:      Singlet-?Sym    9.1280 eV  135.83 nm  f=0.0000  <S**2>=0.000
       7 -> 10         0.31051
       7 -> 14        -0.21948
       7 -> 16        -0.28793
       8 -> 11        -0.31051
       8 -> 15         0.21948
       8 -> 17         0.28793
 
 Excited state symmetry could not be determined.
 Excited State  14:      Singlet-?Sym    9.1280 eV  135.83 nm  f=0.0000  <S**2>=0.000
       7 -> 11         0.31051
       7 -> 15        -0.21948
       7 -> 17        -0.28793
       8 -> 10         0.31051
       8 -> 14        -0.21948
       8 -> 16        -0.28793
 
 Excited state symmetry could not be determined.
 Excited State  15:      Singlet-?Sym   10.0453 eV  123.43 nm  f=0.0334  <S**2>=0.000
       5 -> 10        -0.22165
       5 -> 11        -0.12732
       6 -> 10         0.27208
       6 -> 11         0.15629
       6 -> 14        -0.25302
       6 -> 15        -0.14534
       6 -> 16        -0.40381
       6 -> 17        -0.23196
 
 Excited state symmetry could not be determined.
 Excited State  16:      Singlet-?Sym   10.0453 eV  123.43 nm  f=0.0334  <S**2>=0.000
       5 -> 10         0.12732
       5 -> 11        -0.22165
       6 -> 10        -0.15629
       6 -> 11         0.27208
       6 -> 14         0.14534
       6 -> 15        -0.25302
       6 -> 16         0.23196
       6 -> 17        -0.40381
 
 Excited State  17:      Singlet-SG    10.4094 eV  119.11 nm  f=0.0414  <S**2>=0.000
       6 -> 12         0.66722
       6 -> 13        -0.18965
 
 Excited State  18:      Singlet-SG    10.6756 eV  116.14 nm  f=0.0421  <S**2>=0.000
       5 ->  9         0.62997
       5 -> 12         0.16139
       6 ->  9         0.17908
       7 -> 14        -0.11169
       8 -> 15        -0.11169
 
 Excited state symmetry could not be determined.
 Excited State  19:      Singlet-?Sym   11.3660 eV  109.08 nm  f=0.0616  <S**2>=0.000
       5 -> 10         0.48228
       5 -> 14         0.23843
       5 -> 16         0.10593
       6 -> 10         0.20313
       6 -> 14        -0.33885
       7 -> 13        -0.15939
 
 Excited state symmetry could not be determined.
 Excited State  20:      Singlet-?Sym   11.3660 eV  109.08 nm  f=0.0616  <S**2>=0.000
       5 -> 11         0.48228
       5 -> 15         0.23843
       5 -> 17         0.10593
       6 -> 11         0.20313
       6 -> 15        -0.33885
       8 -> 13        -0.15939
 SavETr:  write IOETrn=   770 NScale= 10 NData=  16 NLR=1 LETran=     370.
 The selected state is a singlet
 Cannot handle 2e integral symmetry, ISym2E=1.
 CISAX:  IP=  1 NPass=   1 NMax=     1.
 CISAX will form     1 AO SS matrices at one time.
 NMat=     1 NSing=     1.
 Symmetry not used in FoFDir.
 MinBra= 0 MaxBra= 2 Meth= 1.
 IRaf=       0 NMat=   1 IRICut=       1 DoRegI=T DoRafI=F ISym2E= 0 JSym2E=0.
 PrsmSu:  NPrtUS=   1 ThrOK=F IAlg=1
 PRISM was handed    62894129 working-precision words and    78 shell-pairs
 IPart=  0 NShTot=        2892 NBatch=         190 AvBLen=        15.2
 Leave Link  914 at Sat Jul 23 16:01:17 2016, MaxMem=   62914560 cpu:       2.2
 (Enter /scratch/spipolo/g09_parma/g09A02/g09/l1002.exe)
 Minotr:  Closed shell wavefunction.
          Computing CIS/TD-HF/TD-KS derivatives.
          Using Z-Vector for PSCF gradient.
          Skipping F1 and S1 gradient terms here.
          Frozen-core window.
          Direct CPHF calculation.
          Differentiating once with respect to electric field.
                with respect to dipole field.
          Electric field/nuclear overlap derivatives assumed to be zero.
          Requested convergence is 1.0D-10 RMS, and 1.0D-09 maximum.
          NewPWx=F KeepS1=T KeepF1=T KeepIn=T MapXYZ=F SortEE=F KeepMc=T.
          MDV=      62914532 using IRadAn=       0.
          Keep R1 ints in memory in canonical form, NReq=1356801.
 Symmetry not used in FoFDir.
 MinBra= 0 MaxBra= 2 Meth= 1.
 IRaf=       0 NMat=   1 IRICut=       1 DoRegI=T DoRafI=F ISym2E= 0 JSym2E=0.
          Solving linear equations separately, MaxMat=       0.
          There are     1 degrees of freedom in the 1st order CPHF.  IDoFFX=0.
 LinEq1:  Iter=  0 NonCon=     1 RMS=2.17D-02 Max=1.33D-01
 AX will form     1 AO Fock derivatives at one time.
 LinEq1:  Iter=  1 NonCon=     1 RMS=8.08D-03 Max=5.86D-02
 LinEq1:  Iter=  2 NonCon=     1 RMS=3.95D-03 Max=2.40D-02
 LinEq1:  Iter=  3 NonCon=     1 RMS=5.19D-04 Max=2.99D-03
 LinEq1:  Iter=  4 NonCon=     1 RMS=5.57D-05 Max=4.33D-04
 LinEq1:  Iter=  5 NonCon=     1 RMS=7.67D-06 Max=4.70D-05
 LinEq1:  Iter=  6 NonCon=     1 RMS=7.80D-07 Max=4.20D-06
 LinEq1:  Iter=  7 NonCon=     1 RMS=8.10D-08 Max=3.69D-07
 LinEq1:  Iter=  8 NonCon=     1 RMS=1.05D-08 Max=5.33D-08
 LinEq1:  Iter=  9 NonCon=     1 RMS=1.13D-09 Max=5.44D-09
 LinEq1:  Iter= 10 NonCon=     1 RMS=1.21D-10 Max=6.38D-10
 LinEq1:  Iter= 11 NonCon=     0 RMS=9.71D-12 Max=6.75D-11
 Linear equations converged to 1.000D-10 1.000D-09 after    11 iterations.
 End of Minotr Frequency-dependent properties file   721 does not exist.
 End of Minotr Frequency-dependent properties file   722 does not exist.
 Leave Link 1002 at Sat Jul 23 16:01:18 2016, MaxMem=   62914560 cpu:       0.2
 (Enter /scratch/spipolo/g09_parma/g09A02/g09/l601.exe)
 Copying SCF densities to generalized density rwf, IOpCl= 0 IROHF=0.

 **********************************************************************

            Population analysis using the CI one-particle density.

 **********************************************************************

 Orbital symmetries:
       Occupied  (SG) (SG) (SG) (SG) (SG) (SG) (PI) (PI)
       Virtual   (SG) (PI) (PI) (SG) (SG) (PI) (PI) (PI) (PI) (SG)
                 (DLTA) (DLTA) (PI) (PI) (SG) (SG) (PI) (PI) (SG)
                 (PI) (PI) (SG) (SG) (SG) (SG) (DLTA) (DLTA) (PI)
                 (PI) (DLTA) (DLTA) (SG) (PI) (PI) (SG) (SG) (SG)
 The electronic state is 1-SG.
 Alpha  occ. eigenvalues --  -15.49155 -11.15767  -2.49836  -1.13095  -0.54283
 Alpha  occ. eigenvalues --   -0.43010  -0.39078  -0.39078
 Alpha virt. eigenvalues --   -0.01406   0.04863   0.04863   0.12184   0.17415
 Alpha virt. eigenvalues --    0.18388   0.18388   0.31782   0.31782   0.34182
 Alpha virt. eigenvalues --    0.54169   0.54169   0.65890   0.65890   0.68815
 Alpha virt. eigenvalues --    0.86962   0.91634   0.91634   0.94299   1.18185
 Alpha virt. eigenvalues --    1.18185   1.19531   1.24256   1.40452   1.71663
 Alpha virt. eigenvalues --    1.88713   1.88713   2.00327   2.00327   2.37822
 Alpha virt. eigenvalues --    2.37822   2.83374   3.03535   3.03535   3.45484
 Alpha virt. eigenvalues --    4.21084   4.61200
          Condensed to atoms (all electrons):
              1          2          3
     1  Li   2.512064   0.410205  -0.033815
     2  C    0.410205   4.945734   0.570057
     3  N   -0.033815   0.570057   6.649308
 Mulliken atomic charges:
              1
     1  Li   0.111546
     2  C    0.074003
     3  N   -0.185550
 Sum of Mulliken atomic charges =   0.00000
 Mulliken charges with hydrogens summed into heavy atoms:
              1
     1  Li   0.111546
     2  C    0.074003
     3  N   -0.185550
 Sum of Mulliken charges with hydrogens summed into heavy atoms =   0.00000
 Electronic spatial extent (au):  <R**2>=            104.2305
 Charge=              0.0000 electrons
 Dipole moment (field-independent basis, Debye):
    X=              0.0000    Y=              0.0000    Z=             -4.0259  Tot=              4.0259
 Quadrupole moment (field-independent basis, Debye-Ang):
   XX=            -17.8848   YY=            -17.8848   ZZ=             -6.8624
   XY=              0.0000   XZ=              0.0000   YZ=              0.0000
 Traceless Quadrupole moment (field-independent basis, Debye-Ang):
   XX=             -3.6741   YY=             -3.6741   ZZ=              7.3483
   XY=              0.0000   XZ=              0.0000   YZ=              0.0000
 Octapole moment (field-independent basis, Debye-Ang**2):
  XXX=              0.0000  YYY=              0.0000  ZZZ=            -26.5836  XYY=              0.0000
  XXY=              0.0000  XXZ=              6.8709  XZZ=              0.0000  YZZ=              0.0000
  YYZ=              6.8709  XYZ=              0.0000
 Hexadecapole moment (field-independent basis, Debye-Ang**3):
 XXXX=            -41.2730 YYYY=            -41.2730 ZZZZ=            -76.1630 XXXY=              0.0000
 XXXZ=              0.0000 YYYX=              0.0000 YYYZ=              0.0000 ZZZX=              0.0000
 ZZZY=              0.0000 XXYY=            -13.7577 XXZZ=            -37.8535 YYZZ=            -37.8535
 XXYZ=              0.0000 YYXZ=              0.0000 ZZXY=              0.0000
 N-N= 2.784820542189D+01 E-N=-2.882190213678D+02  KE= 9.929279961135D+01
 Symmetry A1   KE= 9.444761350950D+01
 Symmetry A2   KE=-1.088156171278D-51
 Symmetry B1   KE= 2.422593050926D+00
 Symmetry B2   KE= 2.422593050926D+00
 No NMR shielding tensors so no spin-rotation constants.
 Leave Link  601 at Sat Jul 23 16:01:19 2016, MaxMem=   62914560 cpu:       0.2
 (Enter /scratch/spipolo/g09_parma/g09A02/g09/l9999.exe)

 Test job not archived.
 1\1\GINC-S3NODE11\SP\RCIS-FC\6-31G(d,p)\C1Li1N1\SPIPOLO\23-Jul-2016\0\
 \#p cis=(root=1,nstates=20,alltransitiondensities)/6-31G** density=rho
 ci iop(9/33=1)\\LiCN 6-31G(d)\\0,1\Li,0,0.,0.,-2.085506\C,0,0.,0.,-0.1
 36506\N,0,0.,0.,1.010794\\Version=AM64L-G09RevA.02\State=1-SG\HF=-99.7
 724984\MP2=-100.0561508\RMSD=3.461e-09\PG=C*V [C*(Li1C1N1)]\\@


 In the beginning the Universe was created.
 This has made a lot of people very angry
 and been widely regarded as a bad move.
                               -D.Adams
 Job cpu time:  0 days  0 hours  0 minutes  3.9 seconds.
 File lengths (MBytes):  RWF=     15 Int=      0 D2E=      0 Chk=      5 Scr=      1
 Normal termination of Gaussian 09 at Sat Jul 23 16:01:19 2016.
