 Entering Gaussian System, Link 0=g09
 Initial command:
 /home/cammi/software/g09A02/g09/l1.exe /tmp/cammi_g09/Gau-27107.inp -scrdir=/tmp/cammi_g09/
 Entering Link 1 = /home/cammi/software/g09A02/g09/l1.exe PID=     27108.
  
 Copyright (c) 1988,1990,1992,1993,1995,1998,2003,2009, Gaussian, Inc.
                  All Rights Reserved.
  
 This is part of the Gaussian(R) 09 program.  It is based on
 the Gaussian(R) 03 system (copyright 2003, Gaussian, Inc.),
 the Gaussian(R) 98 system (copyright 1998, Gaussian, Inc.),
 the Gaussian(R) 94 system (copyright 1995, Gaussian, Inc.),
 the Gaussian 92(TM) system (copyright 1992, Gaussian, Inc.),
 the Gaussian 90(TM) system (copyright 1990, Gaussian, Inc.),
 the Gaussian 88(TM) system (copyright 1988, Gaussian, Inc.),
 the Gaussian 86(TM) system (copyright 1986, Carnegie Mellon
 University), and the Gaussian 82(TM) system (copyright 1983,
 Carnegie Mellon University). Gaussian is a federally registered
 trademark of Gaussian, Inc.
  
 This software contains proprietary and confidential information,
 including trade secrets, belonging to Gaussian, Inc.
  
 This software is provided under written license and may be
 used, copied, transmitted, or stored only in accord with that
 written license.
  
 The following legend is applicable only to US Government
 contracts under FAR:
  
                    RESTRICTED RIGHTS LEGEND
  
 Use, reproduction and disclosure by the US Government is
 subject to restrictions as set forth in subparagraphs (a)
 and (c) of the Commercial Computer Software - Restricted
 Rights clause in FAR 52.227-19.
  
 Gaussian, Inc.
 340 Quinnipiac St., Bldg. 40, Wallingford CT 06492
  
  
 ---------------------------------------------------------------
 Warning -- This program may not be used in any manner that
 competes with the business of Gaussian, Inc. or will provide
 assistance to any competitor of Gaussian, Inc.  The licensee
 of this program is prohibited from giving any competitor of
 Gaussian, Inc. access to this program.  By using this program,
 the user acknowledges that Gaussian, Inc. is engaged in the
 business of creating and licensing software in the field of
 computational chemistry and represents and warrants to the
 licensee that it is not a competitor of Gaussian, Inc. and that
 it will not use this program in any manner prohibited above.
 ---------------------------------------------------------------
  

 Cite this work as:
 Gaussian 09, Revision A.02,
 M. J. Frisch, G. W. Trucks, H. B. Schlegel, G. E. Scuseria, 
 M. A. Robb, J. R. Cheeseman, G. Scalmani, V. Barone, B. Mennucci, 
 G. A. Petersson, H. Nakatsuji, M. Caricato, X. Li, H. P. Hratchian, 
 A. F. Izmaylov, J. Bloino, G. Zheng, J. L. Sonnenberg, M. Hada, 
 M. Ehara, K. Toyota, R. Fukuda, J. Hasegawa, M. Ishida, T. Nakajima, 
 Y. Honda, O. Kitao, H. Nakai, T. Vreven, J. A. Montgomery, Jr., 
 J. E. Peralta, F. Ogliaro, M. Bearpark, J. J. Heyd, E. Brothers, 
 K. N. Kudin, V. N. Staroverov, R. Kobayashi, J. Normand, 
 K. Raghavachari, A. Rendell, J. C. Burant, S. S. Iyengar, J. Tomasi, 
 M. Cossi, N. Rega, J. M. Millam, M. Klene, J. E. Knox, J. B. Cross, 
 V. Bakken, C. Adamo, J. Jaramillo, R. Gomperts, R. E. Stratmann, 
 O. Yazyev, A. J. Austin, R. Cammi, C. Pomelli, J. W. Ochterski, 
 R. L. Martin, K. Morokuma, V. G. Zakrzewski, G. A. Voth, 
 P. Salvador, J. J. Dannenberg, S. Dapprich, A. D. Daniels, 
 O. Farkas, J. B. Foresman, J. V. Ortiz, J. Cioslowski, 
 and D. J. Fox, Gaussian, Inc., Wallingford CT, 2009.
 
 ******************************************
 Gaussian 09:  AM64L-G09RevA.02 11-Jun-2009
                 6-May-2016 
 ******************************************
 %subst l914 /home/cammi/software/g09A02/g09/roby/qrep/parma/exe-dir
 %mem=60MW
 %chk=He.chk
 %nproc=1
 Will use up to    1 processors via shared memory.
 ----------------------------------------------------------------------
 #p cis=(root=1,nstates=10,alltransitiondensities)/6-31G density=rhoci 
 iop(9/33=1) scrf=(iefpcm,read)
 ----------------------------------------------------------------------
 1/30=1,38=1,40=2/1;
 2/12=2,17=6,18=5,40=1/2;
 3/5=1,6=6,11=9,16=1,25=1,30=1,70=2203,71=1,72=1/1,2,8,3;
 4//1;
 5/5=2,38=5/2;
 8/6=1,10=2,107=1,108=10/1;
 9/8=1,15=1,33=1,41=10,42=1,44=3/14;
 10/5=4,13=10/2;
 6/7=2,8=2,9=2,10=2,22=5/1;
 99/5=1,9=1/99;
 Leave Link    1 at Fri May  6 18:44:38 2016, MaxMem=   62914560 cpu:       0.1
 (Enter /home/cammi/software/g09A02/g09/l101.exe)
 -------------
 LiCN 6-31G(d)
 -------------
 Symbolic Z-matrix:
 Charge =  0 Multiplicity = 1
 Li                    0.        0.       -2.08551 
 C                     0.        0.       -0.13651 
 N                     0.        0.        1.01079 
 
 NAtoms=      3 NQM=      3 NQMF=      0 NMic=      0 NMicF=      0 NTot=      3.
                    Isotopes and Nuclear Properties:
 (Nuclear quadrupole moments (NQMom) in fm**2, nuclear magnetic moments (NMagM)
  in nuclear magnetons)

  Atom         1           2           3
 IAtWgt=           7          12          14
 AtmWgt=   7.0160045  12.0000000  14.0030740
 NucSpn=           3           0           2
 AtZEff=   0.0000000   0.0000000   0.0000000
 NQMom=   -4.0100000   0.0000000   2.0440000
 NMagM=    3.2564240   0.0000000   0.4037610
 Leave Link  101 at Fri May  6 18:44:38 2016, MaxMem=   62914560 cpu:       0.2
 (Enter /home/cammi/software/g09A02/g09/l202.exe)
                          Input orientation:                          
 ---------------------------------------------------------------------
 Center     Atomic      Atomic             Coordinates (Angstroms)
 Number     Number       Type             X           Y           Z
 ---------------------------------------------------------------------
      1          3           0        0.000000    0.000000   -2.085506
      2          6           0        0.000000    0.000000   -0.136506
      3          7           0        0.000000    0.000000    1.010794
 ---------------------------------------------------------------------
                    Distance matrix (angstroms):
                    1          2          3
     1  Li   0.000000
     2  C    1.949000   0.000000
     3  N    3.096300   1.147300   0.000000
 Stoichiometry    CLiN
 Framework group  C*V[C*(LiCN)]
 Deg. of freedom     2
 Full point group                 C*V     NOp   4
 Largest Abelian subgroup         C2V     NOp   4
 Largest concise Abelian subgroup C1      NOp   1
                         Standard orientation:                         
 ---------------------------------------------------------------------
 Center     Atomic      Atomic             Coordinates (Angstroms)
 Number     Number       Type             X           Y           Z
 ---------------------------------------------------------------------
      1          3           0        0.000000    0.000000   -2.085506
      2          6           0        0.000000    0.000000   -0.136506
      3          7           0        0.000000    0.000000    1.010794
 ---------------------------------------------------------------------
 Rotational constants (GHZ):      0.0000000     11.2531524     11.2531524
 Leave Link  202 at Fri May  6 18:44:39 2016, MaxMem=   62914560 cpu:       0.0
 (Enter /home/cammi/software/g09A02/g09/l301.exe)
 Standard basis: 6-31G (6D, 7F)
 Ernie: Thresh=  0.10000D-02 Tol=  0.10000D-05 Strict=F.
 There are    15 symmetry adapted basis functions of A1  symmetry.
 There are     0 symmetry adapted basis functions of A2  symmetry.
 There are     6 symmetry adapted basis functions of B1  symmetry.
 There are     6 symmetry adapted basis functions of B2  symmetry.
 Integral buffers will be    131072 words long.
 Raffenetti 1 integral format.
 Two-electron integral symmetry is turned on.
    27 basis functions,    66 primitive gaussians,    27 cartesian basis functions
     8 alpha electrons        8 beta electrons
       nuclear repulsion energy        27.8482054219 Hartrees.
 IExCor=    0 DFT=F Ex=HF Corr=None ExCW=0 ScaHFX=  1.000000
 ScaDFX=  1.000000  1.000000  1.000000  1.000000 ScalE2=  1.000000  1.000000
 IRadAn=      0 IRanWt=     -1 IRanGd=            0 ICorTp=0
 NAtoms=    3 NActive=    3 NUniq=    3 SFac= 7.50D-01 NAtFMM=   80 NAOKFM=F Big=F
 Using the following non-standard input for PCM:
 norep nodis nocav pcmdoc geomview g03defaults eps=2 epsinf=1.02 pdens=1.0
 Warning! Using old PCM defaults because the g03defaults keyword was found.
 These settings can be overridden by following keywords.
 nsfe=1
 --- end of non-standard input.
 Reading user-defined spheres from input:
 ISph  on   Nord    Re0     Alpha      Xe            Ye            Ze
 --- end of user-defined spheres data.
 ------------------------------------------------------------------------------
 Polarizable Continuum Model (PCM)
 =================================
 Model                : PCM.
 Atomic radii         : UA0 (Simple United Atom Topological Model).
 Polarization charges : Total charges.
 Charge compensation  : None.
 Solution method      : Matrix inversion.
 Cavity type          : SES (Solvent Excluding Surface) (Alpha=1.000).
 Cavity algorithm     : GePol (RMin=0.200 OFac=0.890).
                        User-defined sphere list used, NSphG=    1.
                        Lebedev-Laikov grids with approx.  1.0 points / Ang**2.
                        Smoothing algorithm: None.
                        Polarization charges: point-like.
                        Self-potential: constant (ISelfS= 1).
                        Self-field    : global E.n sum rule (ISelfD= 3).
 1st derivatives      : Analytical E(r).r(x)/FMM algorithm (CHGder, D1EAlg=3).
                        Cavity 1st derivative terms included.
 Solvent              : Water, Eps=   2.000000 Eps(inf)=   1.020000
                        RSolv=   1.385000 Ang.
 ------------------------------------------------------------------------------
 Spheres list:
 ISph  on   Nord    Re0     Alpha      Xe            Ye            Ze
    1               5.000   1.000      0.000000      0.000000      0.000000
 ------------------------------------------------------------------------------
 Using symmetry in molecular cavity generation.
 GePol: Number of generator spheres                  =       1
 GePol: Total number of spheres                      =       1
 GePol: Number of exposed spheres                    =       1 (100.00%)
 GePol: Number of points                             =     434
 GePol: Average weight of points                     =       0.72
 GePol: Minimum weight of points                     =   0.17D+00
 GePol: Maximum weight of points                     =    0.80055
 GePol: Number of points with low weight             =       0
 GePol: Fraction of low-weight points (<1% of avg)   =       0.00%
 GePol: Cavity surface area                          =    314.159 Ang**2
 GePol: Cavity volume                                =    523.599 Ang**3
 Leave Link  301 at Fri May  6 18:44:39 2016, MaxMem=   62914560 cpu:       0.2
 (Enter /home/cammi/software/g09A02/g09/l302.exe)
 NPDir=0 NMtPBC=     1 NCelOv=     1 NCel=       1 NClECP=     1 NCelD=      1
         NCelK=      1 NCelE2=     1 NClLst=     1 CellRange=     0.0.
 One-electron integrals computed using PRISM.
 NBasis=    27 RedAO= T  NBF=    15     0     6     6
 NBsUse=    27 1.00D-06 NBFU=    15     0     6     6
 Leave Link  302 at Fri May  6 18:44:39 2016, MaxMem=   62914560 cpu:       0.3
 (Enter /home/cammi/software/g09A02/g09/l308.exe)
 Leave Link  308 at Fri May  6 18:44:39 2016, MaxMem=   62914560 cpu:       0.0
 (Enter /home/cammi/software/g09A02/g09/l303.exe)
 DipDrv:  MaxL=1.
 Leave Link  303 at Fri May  6 18:44:39 2016, MaxMem=   62914560 cpu:       0.1
 (Enter /home/cammi/software/g09A02/g09/l401.exe)
 Harris functional with IExCor=  205 diagonalized for initial guess.
 ExpMin= 3.60D-02 ExpMax= 4.17D+03 ExpMxC= 6.27D+02 IAcc=3 IRadAn=         0 AccDes= 0.00D+00
 HarFok:  IExCor=  205 AccDes= 0.00D+00 IRadAn=         0 IDoV= 1
 ScaDFX=  1.000000  1.000000  1.000000  1.000000
 FoFCou: FMM=F IPFlag=           0 FMFlag=      100000 FMFlg1=           0
         NFxFlg=           0 DoJE=T BraDBF=F KetDBF=T FulRan=T
         Omega=  0.000000  0.000000  1.000000  0.000000  0.000000 ICntrl=     500 IOpCl=  0
         NMat0=    1 NMatS0=    1 NMatT0=    0 NMatD0=    1 NMtDS0=    0 NMtDT0=    0
         I1Cent=           4 NGrid=           0.
 Petite list used in FoFCou.
 Harris En= -99.8109669050255    
 Initial guess orbital symmetries:
       Occupied  (SG) (SG) (SG) (SG) (SG) (PI) (PI) (SG)
       Virtual   (PI) (PI) (SG) (PI) (PI) (SG) (PI) (PI) (SG) (SG)
                 (SG) (PI) (PI) (SG) (PI) (PI) (SG) (SG) (SG)
 The electronic state of the initial guess is 1-SG.
 Leave Link  401 at Fri May  6 18:44:40 2016, MaxMem=   62914560 cpu:       0.4
 (Enter /home/cammi/software/g09A02/g09/l502.exe)
 Closed shell SCF:
 Requested convergence on RMS density matrix=1.00D-08 within 128 cycles.
 Requested convergence on MAX density matrix=1.00D-06.
 Requested convergence on             energy=1.00D-06.
 No special actions if energy rises.
 Using DIIS extrapolation, IDIIS=  1040.
 Integral symmetry usage will be decided dynamically.
 Keep R1 ints in memory in canonical form, NReq=3172560.
 IEnd=       20726 IEndB=       20726 NGot=    62914560 MDV=    62839572
 LenX=    62839572 LenY=    62838402
 Symmetry not used in FoFDir.
 MinBra= 0 MaxBra= 1 Meth= 1.
 IRaf=       0 NMat=   1 IRICut=       1 DoRegI=T DoRafI=F ISym2E= 0 JSym2E=0.

 Cycle   1  Pass 1  IDiag  1:
 E= -99.6379062657220    
 DIIS: error= 5.93D-02 at cycle   1 NSaved=   1.
 NSaved= 1 IEnMin= 1 EnMin= -99.6379062657220     IErMin= 1 ErrMin= 5.93D-02
 ErrMax= 5.93D-02 EMaxC= 1.00D-01 BMatC= 8.87D-02 BMatP= 8.87D-02
 IDIUse=3 WtCom= 4.07D-01 WtEn= 5.93D-01
 Coeff-Com:  0.100D+01
 Coeff-En:   0.100D+01
 Coeff:      0.100D+01
 Gap=     0.278 Goal=   None    Shift=    0.000
 GapD=    0.278 DampG=1.000 DampE=0.500 DampFc=0.5000 IDamp=-1.
 Damping current iteration by 5.00D-01
 RMSDP=1.38D-02 MaxDP=8.06D-02              OVMax= 1.21D-01

 Cycle   2  Pass 1  IDiag  1:
 E= -99.6875834764669     Delta-E=       -0.049677210745 Rises=F Damp=T
 DIIS: error= 2.29D-02 at cycle   2 NSaved=   2.
 NSaved= 2 IEnMin= 2 EnMin= -99.6875834764669     IErMin= 2 ErrMin= 2.29D-02
 ErrMax= 2.29D-02 EMaxC= 1.00D-01 BMatC= 1.67D-02 BMatP= 8.87D-02
 IDIUse=3 WtCom= 7.71D-01 WtEn= 2.29D-01
 Coeff-Com: -0.618D+00 0.162D+01
 Coeff-En:   0.000D+00 0.100D+01
 Coeff:     -0.476D+00 0.148D+01
 Gap=     0.394 Goal=   None    Shift=    0.000
 RMSDP=5.73D-03 MaxDP=4.04D-02 DE=-4.97D-02 OVMax= 2.99D-02

 Cycle   3  Pass 1  IDiag  1:
 E= -99.7310785852131     Delta-E=       -0.043495108746 Rises=F Damp=F
 DIIS: error= 6.01D-03 at cycle   3 NSaved=   3.
 NSaved= 3 IEnMin= 3 EnMin= -99.7310785852131     IErMin= 3 ErrMin= 6.01D-03
 ErrMax= 6.01D-03 EMaxC= 1.00D-01 BMatC= 7.84D-04 BMatP= 1.67D-02
 IDIUse=3 WtCom= 9.40D-01 WtEn= 6.01D-02
 Coeff-Com: -0.171D+00 0.391D+00 0.780D+00
 Coeff-En:   0.000D+00 0.000D+00 0.100D+01
 Coeff:     -0.160D+00 0.367D+00 0.793D+00
 Gap=     0.400 Goal=   None    Shift=    0.000
 RMSDP=1.05D-03 MaxDP=7.38D-03 DE=-4.35D-02 OVMax= 1.28D-02

 Cycle   4  Pass 1  IDiag  1:
 E= -99.7316814018433     Delta-E=       -0.000602816630 Rises=F Damp=F
 DIIS: error= 2.90D-03 at cycle   4 NSaved=   4.
 NSaved= 4 IEnMin= 4 EnMin= -99.7316814018433     IErMin= 4 ErrMin= 2.90D-03
 ErrMax= 2.90D-03 EMaxC= 1.00D-01 BMatC= 1.60D-04 BMatP= 7.84D-04
 IDIUse=3 WtCom= 9.71D-01 WtEn= 2.90D-02
 Coeff-Com:  0.226D-01-0.650D-01 0.286D+00 0.756D+00
 Coeff-En:   0.000D+00 0.000D+00 0.432D-01 0.957D+00
 Coeff:      0.220D-01-0.631D-01 0.279D+00 0.762D+00
 Gap=     0.399 Goal=   None    Shift=    0.000
 RMSDP=3.43D-04 MaxDP=2.82D-03 DE=-6.03D-04 OVMax= 3.46D-03

 Cycle   5  Pass 1  IDiag  1:
 E= -99.7318236147415     Delta-E=       -0.000142212898 Rises=F Damp=F
 DIIS: error= 2.05D-04 at cycle   5 NSaved=   5.
 NSaved= 5 IEnMin= 5 EnMin= -99.7318236147415     IErMin= 5 ErrMin= 2.05D-04
 ErrMax= 2.05D-04 EMaxC= 1.00D-01 BMatC= 8.63D-07 BMatP= 1.60D-04
 IDIUse=3 WtCom= 9.98D-01 WtEn= 2.05D-03
 Coeff-Com: -0.508D-03 0.683D-02-0.107D+00-0.238D+00 0.134D+01
 Coeff-En:   0.000D+00 0.000D+00 0.000D+00 0.000D+00 0.100D+01
 Coeff:     -0.507D-03 0.682D-02-0.107D+00-0.237D+00 0.134D+01
 Gap=     0.399 Goal=   None    Shift=    0.000
 RMSDP=6.92D-05 MaxDP=5.07D-04 DE=-1.42D-04 OVMax= 5.81D-04

 Cycle   6  Pass 1  IDiag  1:
 E= -99.7318257275790     Delta-E=       -0.000002112837 Rises=F Damp=F
 DIIS: error= 4.39D-05 at cycle   6 NSaved=   6.
 NSaved= 6 IEnMin= 6 EnMin= -99.7318257275790     IErMin= 6 ErrMin= 4.39D-05
 ErrMax= 4.39D-05 EMaxC= 1.00D-01 BMatC= 2.22D-08 BMatP= 8.63D-07
 IDIUse=1 WtCom= 1.00D+00 WtEn= 0.00D+00
 Coeff-Com: -0.479D-04-0.173D-02 0.370D-01 0.722D-01-0.506D+00 0.140D+01
 Coeff:     -0.479D-04-0.173D-02 0.370D-01 0.722D-01-0.506D+00 0.140D+01
 Gap=     0.400 Goal=   None    Shift=    0.000
 RMSDP=1.42D-05 MaxDP=1.12D-04 DE=-2.11D-06 OVMax= 1.20D-04

 Cycle   7  Pass 1  IDiag  1:
 E= -99.7318257813220     Delta-E=       -0.000000053743 Rises=F Damp=F
 DIIS: error= 5.87D-06 at cycle   7 NSaved=   7.
 NSaved= 7 IEnMin= 7 EnMin= -99.7318257813220     IErMin= 7 ErrMin= 5.87D-06
 ErrMax= 5.87D-06 EMaxC= 1.00D-01 BMatC= 6.44D-10 BMatP= 2.22D-08
 IDIUse=1 WtCom= 1.00D+00 WtEn= 0.00D+00
 Coeff-Com:  0.117D-03 0.292D-03-0.101D-01-0.205D-01 0.147D+00-0.477D+00
 Coeff-Com:  0.136D+01
 Coeff:      0.117D-03 0.292D-03-0.101D-01-0.205D-01 0.147D+00-0.477D+00
 Coeff:      0.136D+01
 Gap=     0.400 Goal=   None    Shift=    0.000
 RMSDP=2.16D-06 MaxDP=1.81D-05 DE=-5.37D-08 OVMax= 1.26D-05

 Cycle   8  Pass 1  IDiag  1:
 E= -99.7318257823113     Delta-E=       -0.000000000989 Rises=F Damp=F
 DIIS: error= 6.24D-07 at cycle   8 NSaved=   8.
 NSaved= 8 IEnMin= 8 EnMin= -99.7318257823113     IErMin= 8 ErrMin= 6.24D-07
 ErrMax= 6.24D-07 EMaxC= 1.00D-01 BMatC= 6.70D-12 BMatP= 6.44D-10
 IDIUse=1 WtCom= 1.00D+00 WtEn= 0.00D+00
 Coeff-Com: -0.285D-04-0.374D-04 0.170D-02 0.339D-02-0.252D-01 0.866D-01
 Coeff-Com: -0.328D+00 0.126D+01
 Coeff:     -0.285D-04-0.374D-04 0.170D-02 0.339D-02-0.252D-01 0.866D-01
 Coeff:     -0.328D+00 0.126D+01
 Gap=     0.400 Goal=   None    Shift=    0.000
 RMSDP=3.75D-07 MaxDP=3.50D-06 DE=-9.89D-10 OVMax= 1.07D-06

 Cycle   9  Pass 1  IDiag  1:
 E= -99.7318257823223     Delta-E=       -0.000000000011 Rises=F Damp=F
 DIIS: error= 7.10D-08 at cycle   9 NSaved=   9.
 NSaved= 9 IEnMin= 9 EnMin= -99.7318257823223     IErMin= 9 ErrMin= 7.10D-08
 ErrMax= 7.10D-08 EMaxC= 1.00D-01 BMatC= 1.01D-13 BMatP= 6.70D-12
 IDIUse=1 WtCom= 1.00D+00 WtEn= 0.00D+00
 Coeff-Com:  0.270D-05-0.295D-05-0.195D-04-0.403D-04 0.408D-03-0.161D-02
 Coeff-Com:  0.138D-01-0.154D+00 0.114D+01
 Coeff:      0.270D-05-0.295D-05-0.195D-04-0.403D-04 0.408D-03-0.161D-02
 Coeff:      0.138D-01-0.154D+00 0.114D+01
 Gap=     0.400 Goal=   None    Shift=    0.000
 RMSDP=3.31D-08 MaxDP=2.44D-07 DE=-1.10D-11 OVMax= 1.71D-07

 Cycle  10  Pass 1  IDiag  1:
 E= -99.7318257823225     Delta-E=        0.000000000000 Rises=F Damp=F
 DIIS: error= 9.29D-09 at cycle  10 NSaved=  10.
 NSaved=10 IEnMin=10 EnMin= -99.7318257823225     IErMin=10 ErrMin= 9.29D-09
 ErrMax= 9.29D-09 EMaxC= 1.00D-01 BMatC= 1.47D-15 BMatP= 1.01D-13
 IDIUse=1 WtCom= 1.00D+00 WtEn= 0.00D+00
 Coeff-Com: -0.687D-06 0.119D-05-0.425D-05-0.896D-05 0.357D-04-0.761D-04
 Coeff-Com: -0.156D-02 0.341D-01-0.345D+00 0.131D+01
 Coeff:     -0.687D-06 0.119D-05-0.425D-05-0.896D-05 0.357D-04-0.761D-04
 Coeff:     -0.156D-02 0.341D-01-0.345D+00 0.131D+01
 Gap=     0.400 Goal=   None    Shift=    0.000
 RMSDP=4.52D-09 MaxDP=2.62D-08 DE=-2.27D-13 OVMax= 4.89D-08

 Error on total polarization charges =  0.00005
 SCF Done:  E(RHF) =  -99.7318257823     A.U. after   10 cycles
             Convg  =    0.4516D-08             -V/T =  1.9999
 KE= 9.974638435518D+01 PE=-2.906811633189D+02 EE= 6.335474775954D+01
 Leave Link  502 at Fri May  6 18:44:42 2016, MaxMem=   62914560 cpu:       2.4
 (Enter /home/cammi/software/g09A02/g09/l801.exe)
 ExpMin= 3.60D-02 ExpMax= 4.17D+03 ExpMxC= 6.27D+02 IAcc=3 IRadAn=         5 AccDes= 0.00D+00
 HarFok:  IExCor=  205 AccDes= 0.00D+00 IRadAn=         5 IDoV=-2
 ScaDFX=  1.000000  1.000000  1.000000  1.000000
 Largest valence mixing into a core orbital is  3.28D-04
 Largest core mixing into a valence orbital is  8.60D-05
 Range of M.O.s used for correlation:     4    27
 NBasis=    27 NAE=     8 NBE=     8 NFC=     3 NFV=     0
 NROrb=     24 NOA=     5 NOB=     5 NVA=    19 NVB=    19
 Leave Link  801 at Fri May  6 18:44:43 2016, MaxMem=   62914560 cpu:       0.6
 (Enter /home/cammi/software/g09A02/g09/roby/qrep/parma/exe-dir/l914.exe)
 RHF ground state
 MDV=    62914560 DFT=F DoStab=F Mixed=F DoRPA=F DoScal=F NonHer=F
 NEqPCM:  Using equilibrium solvation (IEInf=0, Eps=   2.0000, EpsInf=   1.0200)
 Keep R1, R2, and R3 ints in memory in canonical form, NReq=1775898.
 Symmetry not used in FoFDir.
 MinBra= 0 MaxBra= 1 Meth= 1.
 IRaf=       0 NMat=   1 IRICut=       1 DoRegI=T DoRafI=F ISym2E= 0 JSym2E=0.
 Making orbital integer symmetry assigments:
 Orbital symmetries:
 BldTbl:  Degeneracy threshold= 1.00D-02
       Occupied  (SG) (SG) (SG) (SG) (SG) (SG) (PI) (PI)
       Virtual   (SG) (PI) (PI) (SG) (PI) (PI) (SG) (PI) (PI) (SG)
                 (SG) (PI) (PI) (SG) (PI) (PI) (SG) (SG) (SG)
 Form IVOs with IExCor=    0 ScaHFX=  1.000000 ScaDFX=  1.000000  1.000000  1.000000  1.000000
 IMat=  1 1/2 <PG(P)>=          55.633240258116
 IMat=  1 EOne=-0.179001355270D+03 ETwo= 0.556332402581D+02 Energy=-0.123368115012D+03
 MkCIGS:  K=  1 S=1 I=   5 A=    1.
 MkCIGS:  K=  2 S=1 I=   4 A=    1.
 MkCIGS:  K=  3 S=1 I=   5 A=    2.
 MkCIGS:  K=  4 S=1 I=   5 A=    3.
 MkCIGS:  K=  5 S=1 I=   4 A=    2.
 MkCIGS:  K=  6 S=1 I=   4 A=    3.
 MkCIGS:  K=  7 S=1 I=   3 A=    1.
 MkCIGS:  K=  8 S=1 I=   3 A=    2.
 MkCIGS:  K=  9 S=1 I=   3 A=    3.
 MkCIGS:  K= 10 S=1 I=   5 A=    4.
 MkCIGS:  K= 11 S=1 I=   5 A=    5.
 MkCIGS:  K= 12 S=1 I=   4 A=    4.
 MkCIGS:  K= 13 S=1 I=   4 A=    5.
 MkCIGS:  K= 14 S=1 I=   5 A=    6.
 MkCIGS:  K= 15 S=1 I=   4 A=    6.
 MkCIGS:  K= 16 S=1 I=   3 A=    4.
 MkCIGS:  K= 17 S=1 I=   3 A=    5.
 MkCIGS:  K= 18 S=1 I=   2 A=    1.
 MkCIGS:  K= 19 S=1 I=   3 A=    6.
 MkCIGS:  K= 20 S=1 I=   2 A=    2.
 MkCIGS:  K= 21 S=1 I=   2 A=    3.
 MkCIGS:  K= 22 S=1 I=   5 A=    7.
 MkCIGS:  K= 23 S=1 I=   4 A=    7.
 MkCIGS:  K= 24 S=1 I=   5 A=    8.
 MkCIGS:  K= 25 S=1 I=   5 A=    9.
 MkCIGS:  K= 26 S=1 I=   4 A=    8.
 MkCIGS:  K= 27 S=1 I=   4 A=    9.
 MkCIGS:  K= 28 S=1 I=   3 A=    7.
 MkCIGS:  K= 29 S=1 I=   3 A=    8.
 MkCIGS:  K= 30 S=1 I=   3 A=    9.
 MkCIGS:  K= 31 S=1 I=   2 A=    4.
 MkCIGS:  K= 32 S=1 I=   2 A=    5.
 MkCIGS:  K= 33 S=1 I=   2 A=    6.
 MkCIGS:  K= 34 S=1 I=   5 A=   10.
 MkCIGS:  K= 35 S=1 I=   4 A=   10.
 MkCIGS:  K= 36 S=1 I=   3 A=   10.
 MkCIGS:  K= 37 S=1 I=   2 A=    7.
 MkCIGS:  K= 38 S=1 I=   2 A=    8.
 MkCIGS:  K= 39 S=1 I=   2 A=    9.
 MkCIGS:  K= 40 S=1 I=   2 A=   10.
    40 initial guesses have been made.
 Convergence on wavefunction:    0.000001000000000
 Davidson Disk Diagonalization:  ConvIn= 1.00D-06 SkipCon=T Conv= 1.00D-06.
 Max sub-space:   200 roots to seek:    40 dimension of matrix:    190
 OrtVec:  Test1= 1.00D+00 Test2= 1.00D-08
 OrtVec:  NIn=     40 NOld=      0 NBNew=     40 NBOld=     40
 OrtVc1:  Ph=1 IOff=     0 IPass= 1 DotMx1= 0.00D+00
 OrtVc1:  Ph=2 IOff=     0 IPass= 1 DotMx1= 0.00D+00
 OrtVc1:  IOff=     0 IS=     1 I=     1 K1=T IndO=     1 NNew1=     1 Dot= 1.00D+00 DotN= 1.00D+00 ElMax1= 6.83D-01 ElMax1N= 6.83D-01
 OrtVc1:  Ph=3 IOff=     0 NNewB=     0 IAdd=     2 IPass= 1 DotMx2= 0.00D+00
 OrtVc1:  IOff=     0 IS=     1 I=     2 K1=T IndO=     2 NNew1=     2 Dot= 1.00D+00 DotN= 1.00D+00 ElMax1= 6.83D-01 ElMax1N= 6.83D-01
 OrtVc1:  Ph=3 IOff=     0 NNewB=     0 IAdd=     3 IPass= 1 DotMx2= 5.08D-18
 OrtVc1:  IOff=     0 IS=     1 I=     3 K1=T IndO=     3 NNew1=     3 Dot= 1.00D+00 DotN= 1.00D+00 ElMax1= 4.92D-01 ElMax1N= 4.92D-01
 OrtVc1:  Ph=3 IOff=     0 NNewB=     0 IAdd=     4 IPass= 1 DotMx2= 7.11D-17
 OrtVc1:  IOff=     0 IS=     1 I=     4 K1=T IndO=     4 NNew1=     4 Dot= 1.00D+00 DotN= 1.00D+00 ElMax1= 4.92D-01 ElMax1N= 4.92D-01
 OrtVc1:  Ph=3 IOff=     0 NNewB=     0 IAdd=     5 IPass= 1 DotMx2= 5.08D-18
 OrtVc1:  IOff=     0 IS=     1 I=     5 K1=T IndO=     5 NNew1=     5 Dot= 1.00D+00 DotN= 1.00D+00 ElMax1= 4.92D-01 ElMax1N= 4.92D-01
 OrtVc1:  Ph=3 IOff=     0 NNewB=     0 IAdd=     6 IPass= 1 DotMx2= 7.11D-17
 OrtVc1:  IOff=     0 IS=     1 I=     6 K1=T IndO=     6 NNew1=     6 Dot= 1.00D+00 DotN= 1.00D+00 ElMax1= 4.92D-01 ElMax1N= 4.92D-01
 OrtVc1:  Ph=3 IOff=     0 NNewB=     0 IAdd=     7 IPass= 1 DotMx2= 0.00D+00
 OrtVc1:  IOff=     0 IS=     1 I=     7 K1=T IndO=     7 NNew1=     7 Dot= 1.00D+00 DotN= 1.00D+00 ElMax1= 6.83D-01 ElMax1N= 6.83D-01
 OrtVc1:  Ph=3 IOff=     0 NNewB=     0 IAdd=     8 IPass= 1 DotMx2= 5.08D-18
 OrtVc1:  IOff=     0 IS=     1 I=     8 K1=T IndO=     8 NNew1=     8 Dot= 1.00D+00 DotN= 1.00D+00 ElMax1= 4.92D-01 ElMax1N= 4.92D-01
 OrtVc1:  Ph=3 IOff=     0 NNewB=     0 IAdd=     9 IPass= 1 DotMx2= 7.11D-17
 OrtVc1:  IOff=     0 IS=     1 I=     9 K1=T IndO=     9 NNew1=     9 Dot= 1.00D+00 DotN= 1.00D+00 ElMax1= 4.92D-01 ElMax1N= 4.92D-01
 OrtVc1:  Ph=3 IOff=     0 NNewB=     0 IAdd=    10 IPass= 1 DotMx2= 2.42D-16
 OrtVc1:  IOff=     0 IS=     1 I=    10 K1=T IndO=    10 NNew1=    10 Dot= 1.00D+00 DotN= 1.00D+00 ElMax1= 4.90D-01 ElMax1N= 4.90D-01
 OrtVc1:  Ph=3 IOff=     0 NNewB=     0 IAdd=    11 IPass= 1 DotMx2= 7.58D-17
 OrtVc1:  IOff=     0 IS=     1 I=    11 K1=T IndO=    11 NNew1=    11 Dot= 1.00D+00 DotN= 1.00D+00 ElMax1= 4.90D-01 ElMax1N= 4.90D-01
 OrtVc1:  Ph=3 IOff=     0 NNewB=     0 IAdd=    12 IPass= 1 DotMx2= 2.42D-16
 OrtVc1:  IOff=     0 IS=     1 I=    12 K1=T IndO=    12 NNew1=    12 Dot= 1.00D+00 DotN= 1.00D+00 ElMax1= 4.90D-01 ElMax1N= 4.90D-01
 OrtVc1:  Ph=3 IOff=     0 NNewB=     0 IAdd=    13 IPass= 1 DotMx2= 7.58D-17
 OrtVc1:  IOff=     0 IS=     1 I=    13 K1=T IndO=    13 NNew1=    13 Dot= 1.00D+00 DotN= 1.00D+00 ElMax1= 4.90D-01 ElMax1N= 4.90D-01
 OrtVc1:  Ph=3 IOff=     0 NNewB=     0 IAdd=    14 IPass= 1 DotMx2= 2.79D-16
 OrtVc1:  IOff=     0 IS=     1 I=    14 K1=T IndO=    14 NNew1=    14 Dot= 1.00D+00 DotN= 1.00D+00 ElMax1= 6.72D-01 ElMax1N= 6.72D-01
 OrtVc1:  Ph=3 IOff=     0 NNewB=     0 IAdd=    15 IPass= 1 DotMx2= 2.79D-16
 OrtVc1:  IOff=     0 IS=     1 I=    15 K1=T IndO=    15 NNew1=    15 Dot= 1.00D+00 DotN= 1.00D+00 ElMax1= 6.72D-01 ElMax1N= 6.72D-01
 OrtVc1:  Ph=3 IOff=     0 NNewB=     0 IAdd=    16 IPass= 1 DotMx2= 2.42D-16
 OrtVc1:  IOff=     0 IS=     1 I=    16 K1=T IndO=    16 NNew1=    16 Dot= 1.00D+00 DotN= 1.00D+00 ElMax1= 4.90D-01 ElMax1N= 4.90D-01
 OrtVc1:  Ph=3 IOff=     0 NNewB=     0 IAdd=    17 IPass= 1 DotMx2= 7.58D-17
 OrtVc1:  IOff=     0 IS=     1 I=    17 K1=T IndO=    17 NNew1=    17 Dot= 1.00D+00 DotN= 1.00D+00 ElMax1= 4.90D-01 ElMax1N= 4.90D-01
 OrtVc1:  Ph=3 IOff=     0 NNewB=     0 IAdd=    18 IPass= 1 DotMx2= 0.00D+00
 OrtVc1:  IOff=     0 IS=     1 I=    18 K1=T IndO=    18 NNew1=    18 Dot= 1.00D+00 DotN= 1.00D+00 ElMax1= 6.83D-01 ElMax1N= 6.83D-01
 OrtVc1:  Ph=3 IOff=     0 NNewB=     0 IAdd=    19 IPass= 1 DotMx2= 2.79D-16
 OrtVc1:  IOff=     0 IS=     1 I=    19 K1=T IndO=    19 NNew1=    19 Dot= 1.00D+00 DotN= 1.00D+00 ElMax1= 6.72D-01 ElMax1N= 6.72D-01
 OrtVc1:  Ph=3 IOff=     0 NNewB=     0 IAdd=    20 IPass= 1 DotMx2= 5.08D-18
 OrtVc1:  IOff=     0 IS=     1 I=    20 K1=T IndO=    20 NNew1=    20 Dot= 1.00D+00 DotN= 1.00D+00 ElMax1= 4.92D-01 ElMax1N= 4.92D-01
 OrtVc1:  Ph=3 IOff=     0 NNewB=     0 IAdd=    21 IPass= 1 DotMx2= 7.11D-17
 OrtVc1:  IOff=     0 IS=     1 I=    21 K1=T IndO=    21 NNew1=    21 Dot= 1.00D+00 DotN= 1.00D+00 ElMax1= 4.92D-01 ElMax1N= 4.92D-01
 OrtVc1:  Ph=3 IOff=     0 NNewB=     0 IAdd=    22 IPass= 1 DotMx2= 2.82D-16
 OrtVc1:  IOff=     0 IS=     1 I=    22 K1=T IndO=    22 NNew1=    22 Dot= 1.00D+00 DotN= 1.00D+00 ElMax1= 6.81D-01 ElMax1N= 6.81D-01
 OrtVc1:  Ph=3 IOff=     0 NNewB=     0 IAdd=    23 IPass= 1 DotMx2= 2.82D-16
 OrtVc1:  IOff=     0 IS=     1 I=    23 K1=T IndO=    23 NNew1=    23 Dot= 1.00D+00 DotN= 1.00D+00 ElMax1= 6.81D-01 ElMax1N= 6.81D-01
 OrtVc1:  Ph=3 IOff=     0 NNewB=     0 IAdd=    24 IPass= 1 DotMx2= 6.95D-17
 OrtVc1:  IOff=     0 IS=     1 I=    24 K1=T IndO=    24 NNew1=    24 Dot= 1.00D+00 DotN= 1.00D+00 ElMax1= 5.46D-01 ElMax1N= 5.46D-01
 OrtVc1:  Ph=3 IOff=     0 NNewB=     0 IAdd=    25 IPass= 1 DotMx2= 2.73D-16
 OrtVc1:  IOff=     0 IS=     1 I=    25 K1=T IndO=    25 NNew1=    25 Dot= 1.00D+00 DotN= 1.00D+00 ElMax1= 5.46D-01 ElMax1N= 5.46D-01
 OrtVc1:  Ph=3 IOff=     0 NNewB=     0 IAdd=    26 IPass= 1 DotMx2= 6.95D-17
 OrtVc1:  IOff=     0 IS=     1 I=    26 K1=T IndO=    26 NNew1=    26 Dot= 1.00D+00 DotN= 1.00D+00 ElMax1= 5.46D-01 ElMax1N= 5.46D-01
 OrtVc1:  Ph=3 IOff=     0 NNewB=     0 IAdd=    27 IPass= 1 DotMx2= 2.73D-16
 OrtVc1:  IOff=     0 IS=     1 I=    27 K1=T IndO=    27 NNew1=    27 Dot= 1.00D+00 DotN= 1.00D+00 ElMax1= 5.46D-01 ElMax1N= 5.46D-01
 OrtVc1:  Ph=3 IOff=     0 NNewB=     0 IAdd=    28 IPass= 1 DotMx2= 2.82D-16
 OrtVc1:  IOff=     0 IS=     1 I=    28 K1=T IndO=    28 NNew1=    28 Dot= 1.00D+00 DotN= 1.00D+00 ElMax1= 6.81D-01 ElMax1N= 6.81D-01
 OrtVc1:  Ph=3 IOff=     0 NNewB=     0 IAdd=    29 IPass= 1 DotMx2= 6.95D-17
 OrtVc1:  IOff=     0 IS=     1 I=    29 K1=T IndO=    29 NNew1=    29 Dot= 1.00D+00 DotN= 1.00D+00 ElMax1= 5.46D-01 ElMax1N= 5.46D-01
 OrtVc1:  Ph=3 IOff=     0 NNewB=     0 IAdd=    30 IPass= 1 DotMx2= 2.73D-16
 OrtVc1:  IOff=     0 IS=     1 I=    30 K1=T IndO=    30 NNew1=    30 Dot= 1.00D+00 DotN= 1.00D+00 ElMax1= 5.46D-01 ElMax1N= 5.46D-01
 OrtVc1:  Ph=2 IOff=    30 IPass= 1 DotMx1= 2.82D-16
 OrtVc1:  IOff=     0 IS=    31 I=    31 K1=T IndO=    31 NNew1=     1 Dot= 1.00D+00 DotN= 1.00D+00 ElMax1= 4.90D-01 ElMax1N= 4.90D-01
 OrtVc1:  Ph=3 IOff=     0 NNewB=    30 IAdd=    32 IPass= 1 DotMx2= 3.84D-17
 OrtVc1:  IOff=     0 IS=    31 I=    32 K1=T IndO=    32 NNew1=     2 Dot= 1.00D+00 DotN= 1.00D+00 ElMax1= 4.90D-01 ElMax1N= 4.90D-01
 OrtVc1:  Ph=3 IOff=     0 NNewB=    30 IAdd=    33 IPass= 1 DotMx2= 2.58D-17
 OrtVc1:  IOff=     0 IS=    31 I=    33 K1=T IndO=    33 NNew1=     3 Dot= 1.00D+00 DotN= 1.00D+00 ElMax1= 6.72D-01 ElMax1N= 6.72D-01
 OrtVc1:  Ph=3 IOff=     0 NNewB=    30 IAdd=    34 IPass= 1 DotMx2= 0.00D+00
 OrtVc1:  IOff=     0 IS=    31 I=    34 K1=T IndO=    34 NNew1=     4 Dot= 1.00D+00 DotN= 1.00D+00 ElMax1= 6.92D-01 ElMax1N= 6.92D-01
 OrtVc1:  Ph=3 IOff=     0 NNewB=    30 IAdd=    35 IPass= 1 DotMx2= 0.00D+00
 OrtVc1:  IOff=     0 IS=    31 I=    35 K1=T IndO=    35 NNew1=     5 Dot= 1.00D+00 DotN= 1.00D+00 ElMax1= 6.92D-01 ElMax1N= 6.92D-01
 OrtVc1:  Ph=3 IOff=     0 NNewB=    30 IAdd=    36 IPass= 1 DotMx2= 0.00D+00
 OrtVc1:  IOff=     0 IS=    31 I=    36 K1=T IndO=    36 NNew1=     6 Dot= 1.00D+00 DotN= 1.00D+00 ElMax1= 6.92D-01 ElMax1N= 6.92D-01
 OrtVc1:  Ph=3 IOff=     0 NNewB=    30 IAdd=    37 IPass= 1 DotMx2= 1.27D-16
 OrtVc1:  IOff=     0 IS=    31 I=    37 K1=T IndO=    37 NNew1=     7 Dot= 1.00D+00 DotN= 1.00D+00 ElMax1= 6.81D-01 ElMax1N= 6.81D-01
 OrtVc1:  Ph=3 IOff=     0 NNewB=    30 IAdd=    38 IPass= 1 DotMx2= 8.31D-17
 OrtVc1:  IOff=     0 IS=    31 I=    38 K1=T IndO=    38 NNew1=     8 Dot= 1.00D+00 DotN= 1.00D+00 ElMax1= 5.46D-01 ElMax1N= 5.46D-01
 OrtVc1:  Ph=3 IOff=     0 NNewB=    30 IAdd=    39 IPass= 1 DotMx2= 1.83D-16
 OrtVc1:  IOff=     0 IS=    31 I=    39 K1=T IndO=    39 NNew1=     9 Dot= 1.00D+00 DotN= 1.00D+00 ElMax1= 5.46D-01 ElMax1N= 5.46D-01
 OrtVc1:  Ph=3 IOff=     0 NNewB=    30 IAdd=    40 IPass= 1 DotMx2= 2.40D-17
 OrtVc1:  IOff=     0 IS=    31 I=    40 K1=T IndO=    40 NNew1=    10 Dot= 1.00D+00 DotN= 1.00D+00 ElMax1= 6.92D-01 ElMax1N= 6.92D-01
 Iteration     1 Dimension    40 NMult    40
 Cannot handle 2e integral symmetry, ISym2E=1.
 CISAX:  IP=  1 NPass=   1 NMax=    40.
 CISAX will form    40 AO SS matrices at one time.
 NMat=    40 NSing=    40.
 FoFPCM: IWhat = 3 DoEle= T DoNuc= F Delta=T   Init=T Scale=  1.000000
         MinMlt= 0 MaxMlt= 0 DoP2C= F NMatP= 40 NVecW=  0 NTs=     434
 FoFCou: FMM=F IPFlag=           0 FMFlag=    10101102 FMFlg1=           0
         NFxFlg=    40000000 DoJE=F BraDBF=F KetDBF=T FulRan=T
         Omega=  0.000000  0.000000  1.000000  0.000000  0.000000 ICntrl=    1100 IOpCl=  0
         NMat0=   40 NMatS0=   40 NMatT0=    0 NMatD0=   40 NMtDS0=    0 NMtDT0=    0
         I1Cent=    10001004 NGrid=         434.
 Symmetry not used in FoFCou.
 FoFPCM: IWhat = 4 DoEle= T DoNuc= F Delta=T   Init=F Scale=  1.000000
         MinMlt= 0 MaxMlt= 0 DoP2C= F NMatP=  0 NVecW= 40 NTs=     434
 OrtVec:  Test1= 1.00D+00 Test2= 1.00D-08
 OrtVec:  NIn=     40 NOld=      0 NBNew=     40 NBOld=     40
 OrtVc1:  Ph=1 IOff=     0 IPass= 1 DotMx1= 0.00D+00
 OrtVc1:  Ph=2 IOff=     0 IPass= 1 DotMx1= 0.00D+00
 OrtVc1:  IOff=     0 IS=     1 I=     1 K1=T IndO=     1 NNew1=     1 Dot= 1.00D+00 DotN= 1.00D+00 ElMax1= 3.26D-01 ElMax1N= 3.26D-01
 OrtVc1:  Ph=3 IOff=     0 NNewB=     0 IAdd=     2 IPass= 1 DotMx2= 6.25D-16
 OrtVc1:  IOff=     0 IS=     1 I=     2 K1=T IndO=     2 NNew1=     2 Dot= 1.00D+00 DotN= 1.00D+00 ElMax1= 3.62D-01 ElMax1N= 3.62D-01
 OrtVc1:  Ph=3 IOff=     0 NNewB=     0 IAdd=     3 IPass= 1 DotMx2= 0.00D+00
 OrtVc1:  IOff=     0 IS=     1 I=     3 K1=T IndO=     3 NNew1=     3 Dot= 1.00D+00 DotN= 1.00D+00 ElMax1= 3.62D-01 ElMax1N= 3.62D-01
 OrtVc1:  Ph=3 IOff=     0 NNewB=     0 IAdd=     4 IPass= 1 DotMx2= 0.00D+00
 OrtVc1:  IOff=     0 IS=     1 I=     4 K1=T IndO=     4 NNew1=     4 Dot= 1.00D+00 DotN= 1.00D+00 ElMax1= 6.74D-01 ElMax1N= 6.74D-01
 OrtVc1:  Ph=3 IOff=     0 NNewB=     0 IAdd=     5 IPass= 1 DotMx2= 1.36D-15
 OrtVc1:  IOff=     0 IS=     1 I=     5 K1=T IndO=     5 NNew1=     5 Dot= 1.00D+00 DotN= 1.00D+00 ElMax1= 6.74D-01 ElMax1N= 6.74D-01
 OrtVc1:  Ph=3 IOff=     0 NNewB=     0 IAdd=     6 IPass= 1 DotMx2= 5.96D-16
 OrtVc1:  IOff=     0 IS=     1 I=     6 K1=T IndO=     6 NNew1=     6 Dot= 1.00D+00 DotN= 1.00D+00 ElMax1= 6.70D-01 ElMax1N= 6.70D-01
 OrtVc1:  Ph=3 IOff=     0 NNewB=     0 IAdd=     7 IPass= 1 DotMx2= 4.28D-09
 OrtVc1:  Ph=3 IOff=     0 NNewB=     0 IAdd=     7 IPass= 2 DotMx2= 1.36D-17
 OrtVc1:  IOff=     0 IS=     1 I=     7 K1=T IndO=     7 NNew1=     7 Dot= 1.00D+00 DotN= 1.00D+00 ElMax1= 4.28D-01 ElMax1N= 4.28D-01
 OrtVc1:  Ph=3 IOff=     0 NNewB=     0 IAdd=     8 IPass= 1 DotMx2= 4.28D-09
 OrtVc1:  Ph=3 IOff=     0 NNewB=     0 IAdd=     8 IPass= 2 DotMx2= 7.71D-18
 OrtVc1:  IOff=     0 IS=     1 I=     8 K1=T IndO=     8 NNew1=     8 Dot= 1.00D+00 DotN= 1.00D+00 ElMax1= 4.28D-01 ElMax1N= 4.28D-01
 OrtVc1:  Ph=3 IOff=     0 NNewB=     0 IAdd=     9 IPass= 1 DotMx2= 3.43D-16
 OrtVc1:  IOff=     0 IS=     1 I=     9 K1=T IndO=     9 NNew1=     9 Dot= 1.00D+00 DotN= 1.00D+00 ElMax1= 4.92D-01 ElMax1N= 4.92D-01
 OrtVc1:  Ph=3 IOff=     0 NNewB=     0 IAdd=    10 IPass= 1 DotMx2= 1.53D-16
 OrtVc1:  IOff=     0 IS=     1 I=    10 K1=T IndO=    10 NNew1=    10 Dot= 1.00D+00 DotN= 1.00D+00 ElMax1= 3.77D-01 ElMax1N= 3.77D-01
 OrtVc1:  Ph=3 IOff=     0 NNewB=     0 IAdd=    11 IPass= 1 DotMx2= 2.35D-10
 OrtVc1:  Ph=3 IOff=     0 NNewB=     0 IAdd=    11 IPass= 2 DotMx2= 6.60D-18
 OrtVc1:  IOff=     0 IS=     1 I=    11 K1=T IndO=    11 NNew1=    11 Dot= 1.00D+00 DotN= 1.00D+00 ElMax1= 6.57D-01 ElMax1N= 6.57D-01
 OrtVc1:  Ph=3 IOff=     0 NNewB=     0 IAdd=    12 IPass= 1 DotMx2= 2.35D-10
 OrtVc1:  Ph=3 IOff=     0 NNewB=     0 IAdd=    12 IPass= 2 DotMx2= 1.17D-17
 OrtVc1:  IOff=     0 IS=     1 I=    12 K1=T IndO=    12 NNew1=    12 Dot= 1.00D+00 DotN= 1.00D+00 ElMax1= 6.57D-01 ElMax1N= 6.57D-01
 OrtVc1:  Ph=3 IOff=     0 NNewB=     0 IAdd=    13 IPass= 1 DotMx2= 4.75D-16
 OrtVc1:  IOff=     0 IS=     1 I=    13 K1=T IndO=    13 NNew1=    13 Dot= 1.00D+00 DotN= 1.00D+00 ElMax1= 3.43D-01 ElMax1N= 3.43D-01
 OrtVc1:  Ph=3 IOff=     0 NNewB=     0 IAdd=    14 IPass= 1 DotMx2= 1.12D-15
 OrtVc1:  IOff=     0 IS=     1 I=    14 K1=T IndO=    14 NNew1=    14 Dot= 1.00D+00 DotN= 1.00D+00 ElMax1= 3.43D-01 ElMax1N= 3.43D-01
 OrtVc1:  Ph=3 IOff=     0 NNewB=     0 IAdd=    15 IPass= 1 DotMx2= 9.31D-09
 OrtVc1:  Ph=3 IOff=     0 NNewB=     0 IAdd=    15 IPass= 2 DotMx2= 2.33D-17
 OrtVc1:  IOff=     0 IS=     1 I=    15 K1=T IndO=    15 NNew1=    15 Dot= 1.00D+00 DotN= 1.00D+00 ElMax1= 4.39D-01 ElMax1N= 4.39D-01
 OrtVc1:  Ph=3 IOff=     0 NNewB=     0 IAdd=    16 IPass= 1 DotMx2= 9.31D-09
 OrtVc1:  Ph=3 IOff=     0 NNewB=     0 IAdd=    16 IPass= 2 DotMx2= 2.23D-17
 OrtVc1:  IOff=     0 IS=     1 I=    16 K1=T IndO=    16 NNew1=    16 Dot= 1.00D+00 DotN= 1.00D+00 ElMax1= 4.39D-01 ElMax1N= 4.39D-01
 OrtVc1:  Ph=3 IOff=     0 NNewB=     0 IAdd=    17 IPass= 1 DotMx2= 1.60D-15
 OrtVc1:  IOff=     0 IS=     1 I=    17 K1=T IndO=    17 NNew1=    17 Dot= 1.00D+00 DotN= 1.00D+00 ElMax1= 6.71D-01 ElMax1N= 6.71D-01
 OrtVc1:  Ph=3 IOff=     0 NNewB=     0 IAdd=    18 IPass= 1 DotMx2= 2.09D-15
 OrtVc1:  IOff=     0 IS=     1 I=    18 K1=T IndO=    18 NNew1=    18 Dot= 1.00D+00 DotN= 1.00D+00 ElMax1= 6.36D-01 ElMax1N= 6.36D-01
 OrtVc1:  Ph=3 IOff=     0 NNewB=     0 IAdd=    19 IPass= 1 DotMx2= 1.48D-08
 OrtVc1:  Ph=3 IOff=     0 NNewB=     0 IAdd=    19 IPass= 2 DotMx2= 1.31D-17
 OrtVc1:  IOff=     0 IS=     1 I=    19 K1=T IndO=    19 NNew1=    19 Dot= 1.00D+00 DotN= 1.00D+00 ElMax1= 4.95D-01 ElMax1N= 4.95D-01
 OrtVc1:  Ph=3 IOff=     0 NNewB=     0 IAdd=    20 IPass= 1 DotMx2= 1.48D-08
 OrtVc1:  Ph=3 IOff=     0 NNewB=     0 IAdd=    20 IPass= 2 DotMx2= 3.65D-17
 OrtVc1:  IOff=     0 IS=     1 I=    20 K1=T IndO=    20 NNew1=    20 Dot= 1.00D+00 DotN= 1.00D+00 ElMax1= 4.95D-01 ElMax1N= 4.95D-01
 OrtVc1:  Ph=3 IOff=     0 NNewB=     0 IAdd=    21 IPass= 1 DotMx2= 4.13D-16
 OrtVc1:  IOff=     0 IS=     1 I=    21 K1=T IndO=    21 NNew1=    21 Dot= 1.00D+00 DotN= 1.00D+00 ElMax1= 4.67D-01 ElMax1N= 4.67D-01
 OrtVc1:  Ph=3 IOff=     0 NNewB=     0 IAdd=    22 IPass= 1 DotMx2= 4.99D-10
 OrtVc1:  Ph=3 IOff=     0 NNewB=     0 IAdd=    22 IPass= 2 DotMx2= 2.07D-17
 OrtVc1:  IOff=     0 IS=     1 I=    22 K1=T IndO=    22 NNew1=    22 Dot= 1.00D+00 DotN= 1.00D+00 ElMax1= 6.69D-01 ElMax1N= 6.69D-01
 OrtVc1:  Ph=3 IOff=     0 NNewB=     0 IAdd=    23 IPass= 1 DotMx2= 4.99D-10
 OrtVc1:  Ph=3 IOff=     0 NNewB=     0 IAdd=    23 IPass= 2 DotMx2= 2.59D-17
 OrtVc1:  IOff=     0 IS=     1 I=    23 K1=T IndO=    23 NNew1=    23 Dot= 1.00D+00 DotN= 1.00D+00 ElMax1= 6.69D-01 ElMax1N= 6.69D-01
 OrtVc1:  Ph=3 IOff=     0 NNewB=     0 IAdd=    24 IPass= 1 DotMx2= 6.02D-16
 OrtVc1:  IOff=     0 IS=     1 I=    24 K1=T IndO=    24 NNew1=    24 Dot= 1.00D+00 DotN= 1.00D+00 ElMax1= 3.92D-01 ElMax1N= 3.92D-01
 OrtVc1:  Ph=3 IOff=     0 NNewB=     0 IAdd=    25 IPass= 1 DotMx2= 7.91D-16
 OrtVc1:  IOff=     0 IS=     1 I=    25 K1=T IndO=    25 NNew1=    25 Dot= 1.00D+00 DotN= 1.00D+00 ElMax1= 3.80D-01 ElMax1N= 3.80D-01
 OrtVc1:  Ph=3 IOff=     0 NNewB=     0 IAdd=    26 IPass= 1 DotMx2= 1.28D-14
 OrtVc1:  IOff=     0 IS=     1 I=    26 K1=T IndO=    26 NNew1=    26 Dot= 1.00D+00 DotN= 1.00D+00 ElMax1= 3.80D-01 ElMax1N= 3.80D-01
 OrtVc1:  Ph=3 IOff=     0 NNewB=     0 IAdd=    27 IPass= 1 DotMx2= 2.03D-14
 OrtVc1:  IOff=     0 IS=     1 I=    27 K1=T IndO=    27 NNew1=    27 Dot= 1.00D+00 DotN= 1.00D+00 ElMax1= 6.46D-01 ElMax1N= 6.46D-01
 OrtVc1:  Ph=3 IOff=     0 NNewB=     0 IAdd=    28 IPass= 1 DotMx2= 4.38D-09
 OrtVc1:  Ph=3 IOff=     0 NNewB=     0 IAdd=    28 IPass= 2 DotMx2= 4.38D-17
 OrtVc1:  IOff=     0 IS=     1 I=    28 K1=T IndO=    28 NNew1=    28 Dot= 1.00D+00 DotN= 1.00D+00 ElMax1= 4.44D-01 ElMax1N= 4.44D-01
 OrtVc1:  Ph=3 IOff=     0 NNewB=     0 IAdd=    29 IPass= 1 DotMx2= 4.38D-09
 OrtVc1:  Ph=3 IOff=     0 NNewB=     0 IAdd=    29 IPass= 2 DotMx2= 6.93D-17
 OrtVc1:  IOff=     0 IS=     1 I=    29 K1=T IndO=    29 NNew1=    29 Dot= 1.00D+00 DotN= 1.00D+00 ElMax1= 4.44D-01 ElMax1N= 4.44D-01
 OrtVc1:  Ph=3 IOff=     0 NNewB=     0 IAdd=    30 IPass= 1 DotMx2= 4.25D-14
 OrtVc1:  IOff=     0 IS=     1 I=    30 K1=T IndO=    30 NNew1=    30 Dot= 1.00D+00 DotN= 1.00D+00 ElMax1= 6.12D-01 ElMax1N= 6.12D-01
 OrtVc1:  Ph=2 IOff=    30 IPass= 1 DotMx1= 3.44D-08
 OrtVc1:  Ph=2 IOff=    30 IPass= 2 DotMx1= 2.41D-17
 OrtVc1:  IOff=     0 IS=    31 I=    31 K1=T IndO=    31 NNew1=     1 Dot= 1.00D+00 DotN= 1.00D+00 ElMax1= 4.50D-01 ElMax1N= 4.50D-01
 OrtVc1:  Ph=3 IOff=     0 NNewB=    30 IAdd=    32 IPass= 1 DotMx2= 1.86D-16
 OrtVc1:  IOff=     0 IS=    31 I=    32 K1=T IndO=    32 NNew1=     2 Dot= 1.00D+00 DotN= 1.00D+00 ElMax1= 4.50D-01 ElMax1N= 4.50D-01
 OrtVc1:  Ph=3 IOff=     0 NNewB=    30 IAdd=    33 IPass= 1 DotMx2= 1.50D-10
 OrtVc1:  Ph=3 IOff=     0 NNewB=    30 IAdd=    33 IPass= 2 DotMx2= 4.55D-17
 OrtVc1:  IOff=     0 IS=    31 I=    33 K1=T IndO=    33 NNew1=     3 Dot= 1.00D+00 DotN= 1.00D+00 ElMax1= 5.20D-01 ElMax1N= 5.20D-01
 OrtVc1:  Ph=3 IOff=     0 NNewB=    30 IAdd=    34 IPass= 1 DotMx2= 1.50D-10
 OrtVc1:  Ph=3 IOff=     0 NNewB=    30 IAdd=    34 IPass= 2 DotMx2= 2.40D-17
 OrtVc1:  IOff=     0 IS=    31 I=    34 K1=T IndO=    34 NNew1=     4 Dot= 1.00D+00 DotN= 1.00D+00 ElMax1= 5.20D-01 ElMax1N= 5.20D-01
 OrtVc1:  Ph=3 IOff=     0 NNewB=    30 IAdd=    35 IPass= 1 DotMx2= 0.00D+00
 OrtVc1:  IOff=     0 IS=    31 I=    35 K1=T IndO=    35 NNew1=     5 Dot= 1.00D+00 DotN= 1.00D+00 ElMax1= 6.81D-01 ElMax1N= 6.81D-01
 OrtVc1:  Ph=3 IOff=     0 NNewB=    30 IAdd=    36 IPass= 1 DotMx2= 6.94D-16
 OrtVc1:  IOff=     0 IS=    31 I=    36 K1=T IndO=    36 NNew1=     6 Dot= 1.00D+00 DotN= 1.00D+00 ElMax1= 6.61D-01 ElMax1N= 6.61D-01
 OrtVc1:  Ph=3 IOff=     0 NNewB=    30 IAdd=    37 IPass= 1 DotMx2= 3.34D-11
 OrtVc1:  Ph=3 IOff=     0 NNewB=    30 IAdd=    37 IPass= 2 DotMx2= 3.05D-17
 OrtVc1:  IOff=     0 IS=    31 I=    37 K1=T IndO=    37 NNew1=     7 Dot= 1.00D+00 DotN= 1.00D+00 ElMax1= 5.66D-01 ElMax1N= 5.66D-01
 OrtVc1:  Ph=3 IOff=     0 NNewB=    30 IAdd=    38 IPass= 1 DotMx2= 3.34D-11
 OrtVc1:  Ph=3 IOff=     0 NNewB=    30 IAdd=    38 IPass= 2 DotMx2= 7.22D-18
 OrtVc1:  IOff=     0 IS=    31 I=    38 K1=T IndO=    38 NNew1=     8 Dot= 1.00D+00 DotN= 1.00D+00 ElMax1= 5.66D-01 ElMax1N= 5.66D-01
 OrtVc1:  Ph=3 IOff=     0 NNewB=    30 IAdd=    39 IPass= 1 DotMx2= 1.10D-16
 OrtVc1:  IOff=     0 IS=    31 I=    39 K1=T IndO=    39 NNew1=     9 Dot= 1.00D+00 DotN= 1.00D+00 ElMax1= 6.29D-01 ElMax1N= 6.29D-01
 OrtVc1:  Ph=3 IOff=     0 NNewB=    30 IAdd=    40 IPass= 1 DotMx2= 2.62D-16
 OrtVc1:  IOff=     0 IS=    31 I=    40 K1=T IndO=    40 NNew1=    10 Dot= 1.00D+00 DotN= 1.00D+00 ElMax1= 4.20D-01 ElMax1N= 4.20D-01
 New state      1 was old state      4
 New state      2 was old state      5
 New state      4 was old state      1
 New state      5 was old state      2
 New state      6 was old state      7
 New state      7 was old state      9
 New state      9 was old state     10
 New state     10 was old state     11
 Excitation Energies [eV] at current iteration:
 Root      1 :     6.683271590544477
 Root      2 :     7.011369478391851
 Root      3 :     7.011369704632941
 Root      4 :     7.122311524809116
 Root      5 :     7.122311524809157
 Root      6 :     7.549824339408140
 Root      7 :     8.061140990807068
 Root      8 :     8.061140990807072
 Root      9 :     8.758266174662607
 Root     10 :     9.271868673513316
 Root     11 :     9.403802115804696
 Root     12 :     9.403802115804737
 Root     13 :     9.413558615300760
 Root     14 :     9.413558745263181
 Root     15 :    10.165944394228290
 Root     16 :    10.165944394228290
 Root     17 :    10.670637254456250
 Root     18 :    10.998495238081080
 Root     19 :    11.565407641444930
 Root     20 :    11.565407641444940
 Root     21 :    12.033894576433310
 Root     22 :    12.417352410401700
 Root     23 :    12.417352410401750
 Root     24 :    12.608979496624070
 Root     25 :    12.622228721175820
 Root     26 :    12.622228778075220
 Root     27 :    12.772575273971310
 Root     28 :    13.157872561478840
 Root     29 :    13.157872561478880
 Root     30 :    13.240560780533800
 Root     31 :    14.312732240296630
 Root     32 :    14.312732240296690
 Root     33 :    14.981268321513400
 Root     34 :    14.981268321513440
 Root     35 :    15.649179392234950
 Root     36 :    16.272363766268190
 Root     37 :    16.884038388862830
 Root     38 :    16.884038388862870
 Root     39 :    18.719976490707140
 Root     40 :    20.562026883278970
 OrtVec:  Test1= 1.00D+00 Test2= 1.00D-08
 OrtVec:  NIn=     40 NOld=     40 NBNew=     40 NBOld=     80
 OrtVc1:  Ph=1 IOff=     0 IPass= 1 DotMx1= 2.52D+00
 OrtVc1:  Ph=1 IOff=     0 IPass= 2 DotMx1= 7.18D-16
 OrtVc1:  Ph=2 IOff=     0 IPass= 1 DotMx1= 0.00D+00
 OrtVc1:  IOff=     0 IS=     1 I=     1 K1=T IndO=     1 NNew1=     1 Dot= 1.48D-04 DotN= 1.48D-04 ElMax1= 4.59D-03 ElMax1N= 4.59D-03
 OrtVc1:  Ph=3 IOff=     0 NNewB=     0 IAdd=     2 IPass= 1 DotMx2= 7.92D-16
 OrtVc1:  IOff=     0 IS=     1 I=     2 K1=T IndO=     2 NNew1=     2 Dot= 2.88D-04 DotN= 2.88D-04 ElMax1= 7.12D-03 ElMax1N= 7.12D-03
 OrtVc1:  Ph=3 IOff=     0 NNewB=     0 IAdd=     3 IPass= 1 DotMx2= 1.60D-19
 OrtVc1:  IOff=     0 IS=     1 I=     3 K1=T IndO=     3 NNew1=     3 Dot= 2.88D-04 DotN= 2.88D-04 ElMax1= 7.12D-03 ElMax1N= 7.12D-03
 OrtVc1:  Ph=3 IOff=     0 NNewB=     0 IAdd=     4 IPass= 1 DotMx2= 7.36D-20
 OrtVc1:  IOff=     0 IS=     1 I=     4 K1=T IndO=     4 NNew1=     4 Dot= 8.33D-05 DotN= 8.33D-05 ElMax1= 3.64D-03 ElMax1N= 3.64D-03
 OrtVc1:  Ph=3 IOff=     0 NNewB=     0 IAdd=     5 IPass= 1 DotMx2= 8.61D-18
 OrtVc1:  IOff=     0 IS=     1 I=     5 K1=T IndO=     5 NNew1=     5 Dot= 8.33D-05 DotN= 8.33D-05 ElMax1= 3.64D-03 ElMax1N= 3.64D-03
 OrtVc1:  Ph=3 IOff=     0 NNewB=     0 IAdd=     6 IPass= 1 DotMx2= 2.51D-16
 OrtVc1:  IOff=     0 IS=     1 I=     6 K1=T IndO=     6 NNew1=     6 Dot= 1.08D-03 DotN= 1.08D-03 ElMax1= 1.24D-02 ElMax1N= 1.24D-02
 OrtVc1:  Ph=3 IOff=     0 NNewB=     0 IAdd=     7 IPass= 1 DotMx2= 1.43D-02
 OrtVc1:  Ph=3 IOff=     0 NNewB=     0 IAdd=     7 IPass= 2 DotMx2= 2.37D-18
 OrtVc1:  IOff=     0 IS=     1 I=     7 K1=T IndO=     7 NNew1=     7 Dot= 1.25D-03 DotN= 1.25D-03 ElMax1= 1.04D-02 ElMax1N= 1.04D-02
 OrtVc1:  Ph=3 IOff=     0 NNewB=     0 IAdd=     8 IPass= 1 DotMx2= 1.43D-02
 OrtVc1:  Ph=3 IOff=     0 NNewB=     0 IAdd=     8 IPass= 2 DotMx2= 2.99D-18
 OrtVc1:  IOff=     0 IS=     1 I=     8 K1=T IndO=     8 NNew1=     8 Dot= 1.25D-03 DotN= 1.25D-03 ElMax1= 1.04D-02 ElMax1N= 1.04D-02
 OrtVc1:  Ph=3 IOff=     0 NNewB=     0 IAdd=     9 IPass= 1 DotMx2= 4.54D-02
 OrtVc1:  Ph=3 IOff=     0 NNewB=     0 IAdd=     9 IPass= 2 DotMx2= 4.71D-18
 OrtVc1:  IOff=     0 IS=     1 I=     9 K1=T IndO=     9 NNew1=     9 Dot= 1.65D-03 DotN= 1.65D-03 ElMax1= 1.13D-02 ElMax1N= 1.13D-02
 OrtVc1:  Ph=3 IOff=     0 NNewB=     0 IAdd=    10 IPass= 1 DotMx2= 7.52D-03
 OrtVc1:  Ph=3 IOff=     0 NNewB=     0 IAdd=    10 IPass= 2 DotMx2= 6.77D-19
 OrtVc1:  IOff=     0 IS=     1 I=    10 K1=T IndO=    10 NNew1=    10 Dot= 6.25D-08 DotN= 6.25D-08 ElMax1= 9.57D-05 ElMax1N= 9.57D-05
 OrtVc1:  Ph=3 IOff=     0 NNewB=     0 IAdd=    11 IPass= 1 DotMx2= 5.84D-03
 OrtVc1:  Ph=3 IOff=     0 NNewB=     0 IAdd=    11 IPass= 2 DotMx2= 1.55D-18
 OrtVc1:  IOff=     0 IS=     1 I=    11 K1=T IndO=    11 NNew1=    11 Dot= 1.46D-04 DotN= 1.46D-04 ElMax1= 5.94D-03 ElMax1N= 5.94D-03
 OrtVc1:  Ph=3 IOff=     0 NNewB=     0 IAdd=    12 IPass= 1 DotMx2= 5.84D-03
 OrtVc1:  Ph=3 IOff=     0 NNewB=     0 IAdd=    12 IPass= 2 DotMx2= 1.05D-18
 OrtVc1:  IOff=     0 IS=     1 I=    12 K1=T IndO=    12 NNew1=    12 Dot= 1.46D-04 DotN= 1.46D-04 ElMax1= 5.94D-03 ElMax1N= 5.94D-03
 OrtVc1:  Ph=3 IOff=     0 NNewB=     0 IAdd=    13 IPass= 1 DotMx2= 1.33D-02
 OrtVc1:  Ph=3 IOff=     0 NNewB=     0 IAdd=    13 IPass= 2 DotMx2= 3.59D-18
 OrtVc1:  IOff=     0 IS=     1 I=    13 K1=T IndO=    13 NNew1=    13 Dot= 3.30D-07 DotN= 3.30D-07 ElMax1= 2.44D-04 ElMax1N= 2.44D-04
 OrtVc1:  Ph=3 IOff=     0 NNewB=     0 IAdd=    14 IPass= 1 DotMx2= 1.33D-02
 OrtVc1:  Ph=3 IOff=     0 NNewB=     0 IAdd=    14 IPass= 2 DotMx2= 6.42D-19
 OrtVc1:  IOff=     0 IS=     1 I=    14 K1=T IndO=    14 NNew1=    14 Dot= 3.30D-07 DotN= 3.30D-07 ElMax1= 2.44D-04 ElMax1N= 2.44D-04
 OrtVc1:  Ph=3 IOff=     0 NNewB=     0 IAdd=    15 IPass= 1 DotMx2= 4.11D-02
 OrtVc1:  Ph=3 IOff=     0 NNewB=     0 IAdd=    15 IPass= 2 DotMx2= 1.07D-17
 OrtVc1:  IOff=     0 IS=     1 I=    15 K1=T IndO=    15 NNew1=    15 Dot= 3.42D-04 DotN= 3.42D-04 ElMax1= 7.25D-03 ElMax1N= 7.25D-03
 OrtVc1:  Ph=3 IOff=     0 NNewB=     0 IAdd=    16 IPass= 1 DotMx2= 4.11D-02
 OrtVc1:  Ph=3 IOff=     0 NNewB=     0 IAdd=    16 IPass= 2 DotMx2= 1.50D-17
 OrtVc1:  IOff=     0 IS=     1 I=    16 K1=T IndO=    16 NNew1=    16 Dot= 3.42D-04 DotN= 3.42D-04 ElMax1= 7.25D-03 ElMax1N= 7.25D-03
 OrtVc1:  Ph=3 IOff=     0 NNewB=     0 IAdd=    17 IPass= 1 DotMx2= 5.19D-02
 OrtVc1:  Ph=3 IOff=     0 NNewB=     0 IAdd=    17 IPass= 2 DotMx2= 6.56D-18
 OrtVc1:  IOff=     0 IS=     1 I=    17 K1=T IndO=    17 NNew1=    17 Dot= 5.83D-04 DotN= 5.83D-04 ElMax1= 1.20D-02 ElMax1N= 1.20D-02
 OrtVc1:  Ph=3 IOff=     0 NNewB=     0 IAdd=    18 IPass= 1 DotMx2= 2.07D-02
 OrtVc1:  Ph=3 IOff=     0 NNewB=     0 IAdd=    18 IPass= 2 DotMx2= 2.16D-18
 OrtVc1:  IOff=     0 IS=     1 I=    18 K1=T IndO=    18 NNew1=    18 Dot= 2.27D-04 DotN= 2.27D-04 ElMax1= 6.11D-03 ElMax1N= 6.11D-03
 OrtVc1:  Ph=3 IOff=     0 NNewB=     0 IAdd=    19 IPass= 1 DotMx2= 1.81D-02
 OrtVc1:  Ph=3 IOff=     0 NNewB=     0 IAdd=    19 IPass= 2 DotMx2= 5.80D-18
 OrtVc1:  IOff=     0 IS=     1 I=    19 K1=T IndO=    19 NNew1=    19 Dot= 2.16D-04 DotN= 2.16D-04 ElMax1= 4.96D-03 ElMax1N= 4.96D-03
 OrtVc1:  Ph=3 IOff=     0 NNewB=     0 IAdd=    20 IPass= 1 DotMx2= 1.81D-02
 OrtVc1:  Ph=3 IOff=     0 NNewB=     0 IAdd=    20 IPass= 2 DotMx2= 7.80D-18
 OrtVc1:  IOff=     0 IS=     1 I=    20 K1=T IndO=    20 NNew1=    20 Dot= 2.16D-04 DotN= 2.16D-04 ElMax1= 4.96D-03 ElMax1N= 4.96D-03
 OrtVc1:  Ph=3 IOff=     0 NNewB=     0 IAdd=    21 IPass= 1 DotMx2= 4.39D-02
 OrtVc1:  Ph=3 IOff=     0 NNewB=     0 IAdd=    21 IPass= 2 DotMx2= 2.00D-18
 OrtVc1:  IOff=     0 IS=     1 I=    21 K1=T IndO=    21 NNew1=    21 Dot= 8.98D-04 DotN= 8.98D-04 ElMax1= 1.18D-02 ElMax1N= 1.18D-02
 OrtVc1:  Ph=3 IOff=     0 NNewB=     0 IAdd=    22 IPass= 1 DotMx2= 6.18D-03
 OrtVc1:  Ph=3 IOff=     0 NNewB=     0 IAdd=    22 IPass= 2 DotMx2= 1.88D-18
 OrtVc1:  IOff=     0 IS=     1 I=    22 K1=T IndO=    22 NNew1=    22 Dot= 1.16D-05 DotN= 1.16D-05 ElMax1= 1.28D-03 ElMax1N= 1.28D-03
 OrtVc1:  Ph=3 IOff=     0 NNewB=     0 IAdd=    23 IPass= 1 DotMx2= 6.18D-03
 OrtVc1:  Ph=3 IOff=     0 NNewB=     0 IAdd=    23 IPass= 2 DotMx2= 1.67D-18
 OrtVc1:  IOff=     0 IS=     1 I=    23 K1=T IndO=    23 NNew1=    23 Dot= 1.16D-05 DotN= 1.16D-05 ElMax1= 1.28D-03 ElMax1N= 1.28D-03
 OrtVc1:  Ph=3 IOff=     0 NNewB=     0 IAdd=    24 IPass= 1 DotMx2= 3.14D-03
 OrtVc1:  Ph=3 IOff=     0 NNewB=     0 IAdd=    24 IPass= 2 DotMx2= 4.16D-19
 OrtVc1:  IOff=     0 IS=     1 I=    24 K1=T IndO=     0 NNew1=    23 Dot= 1.88D-36 DotN= 1.88D-36 ElMax1= 6.47D-19 ElMax1N= 6.47D-19
 OrtVc1:  Ph=3 IOff=     0 NNewB=     0 IAdd=    25 IPass= 1 DotMx2= 6.52D-03
 OrtVc1:  Ph=3 IOff=     0 NNewB=     0 IAdd=    25 IPass= 2 DotMx2= 2.18D-18
 OrtVc1:  IOff=     0 IS=     1 I=    25 K1=T IndO=     0 NNew1=    23 Dot= 8.89D-37 DotN= 8.89D-37 ElMax1= 7.05D-19 ElMax1N= 7.05D-19
 OrtVc1:  Ph=3 IOff=     0 NNewB=     0 IAdd=    26 IPass= 1 DotMx2= 6.52D-03
 OrtVc1:  Ph=3 IOff=     0 NNewB=     0 IAdd=    26 IPass= 2 DotMx2= 7.28D-19
 OrtVc1:  IOff=     0 IS=     1 I=    26 K1=T IndO=     0 NNew1=    23 Dot= 6.55D-30 DotN= 6.55D-30 ElMax1= 7.94D-16 ElMax1N= 7.94D-16
 OrtVc1:  Ph=3 IOff=     0 NNewB=     0 IAdd=    27 IPass= 1 DotMx2= 1.05D-02
 OrtVc1:  Ph=3 IOff=     0 NNewB=     0 IAdd=    27 IPass= 2 DotMx2= 3.63D-18
 OrtVc1:  IOff=     0 IS=     1 I=    27 K1=T IndO=    24 NNew1=    24 Dot= 3.63D-05 DotN= 3.63D-05 ElMax1= 1.98D-03 ElMax1N= 1.98D-03
 OrtVc1:  Ph=3 IOff=     0 NNewB=     0 IAdd=    28 IPass= 1 DotMx2= 2.20D-02
 OrtVc1:  Ph=3 IOff=     0 NNewB=     0 IAdd=    28 IPass= 2 DotMx2= 8.24D-18
 OrtVc1:  IOff=     0 IS=     1 I=    28 K1=T IndO=    25 NNew1=    25 Dot= 6.07D-05 DotN= 6.07D-05 ElMax1= 4.13D-03 ElMax1N= 4.13D-03
 OrtVc1:  Ph=3 IOff=     0 NNewB=     0 IAdd=    29 IPass= 1 DotMx2= 2.20D-02
 OrtVc1:  Ph=3 IOff=     0 NNewB=     0 IAdd=    29 IPass= 2 DotMx2= 4.37D-18
 OrtVc1:  IOff=     0 IS=     1 I=    29 K1=T IndO=    26 NNew1=    26 Dot= 6.07D-05 DotN= 6.07D-05 ElMax1= 4.13D-03 ElMax1N= 4.13D-03
 OrtVc1:  Ph=3 IOff=     0 NNewB=     0 IAdd=    30 IPass= 1 DotMx2= 2.87D-02
 OrtVc1:  Ph=3 IOff=     0 NNewB=     0 IAdd=    30 IPass= 2 DotMx2= 7.41D-18
 OrtVc1:  IOff=     0 IS=     1 I=    30 K1=T IndO=    27 NNew1=    27 Dot= 2.17D-04 DotN= 2.17D-04 ElMax1= 4.83D-03 ElMax1N= 4.83D-03
 OrtVc1:  Ph=2 IOff=    30 IPass= 1 DotMx1= 2.58D-01
 OrtVc1:  Ph=2 IOff=    30 IPass= 2 DotMx1= 5.46D-17
 OrtVc1:  IOff=     0 IS=    31 I=    31 K1=T IndO=    28 NNew1=     1 Dot= 1.31D-02 DotN= 1.31D-02 ElMax1= 4.48D-02 ElMax1N= 4.48D-02
 OrtVc1:  Ph=3 IOff=     0 NNewB=    27 IAdd=    32 IPass= 1 DotMx2= 4.56D-14
 OrtVc1:  IOff=     0 IS=    31 I=    32 K1=T IndO=    29 NNew1=     2 Dot= 1.31D-02 DotN= 1.31D-02 ElMax1= 4.48D-02 ElMax1N= 4.48D-02
 OrtVc1:  Ph=3 IOff=     0 NNewB=    27 IAdd=    33 IPass= 1 DotMx2= 7.16D-03
 OrtVc1:  Ph=3 IOff=     0 NNewB=    27 IAdd=    33 IPass= 2 DotMx2= 3.69D-18
 OrtVc1:  IOff=     0 IS=    31 I=    33 K1=T IndO=    30 NNew1=     3 Dot= 1.40D-04 DotN= 1.40D-04 ElMax1= 6.39D-03 ElMax1N= 6.39D-03
 OrtVc1:  Ph=3 IOff=     0 NNewB=    27 IAdd=    34 IPass= 1 DotMx2= 7.16D-03
 OrtVc1:  Ph=3 IOff=     0 NNewB=    27 IAdd=    34 IPass= 2 DotMx2= 1.09D-18
 OrtVc1:  IOff=     0 IS=    31 I=    34 K1=T IndO=    31 NNew1=     4 Dot= 1.40D-04 DotN= 1.40D-04 ElMax1= 6.39D-03 ElMax1N= 6.39D-03
 OrtVc1:  Ph=3 IOff=     0 NNewB=    27 IAdd=    35 IPass= 1 DotMx2= 2.57D-18
 OrtVc1:  IOff=     0 IS=    31 I=    35 K1=T IndO=    32 NNew1=     5 Dot= 5.81D-04 DotN= 5.81D-04 ElMax1= 7.85D-03 ElMax1N= 7.85D-03
 OrtVc1:  Ph=3 IOff=     0 NNewB=    27 IAdd=    36 IPass= 1 DotMx2= 1.77D-03
 OrtVc1:  Ph=3 IOff=     0 NNewB=    27 IAdd=    36 IPass= 2 DotMx2= 1.28D-19
 OrtVc1:  IOff=     0 IS=    31 I=    36 K1=T IndO=    33 NNew1=     6 Dot= 9.36D-05 DotN= 9.36D-05 ElMax1= 4.93D-03 ElMax1N= 4.93D-03
 OrtVc1:  Ph=3 IOff=     0 NNewB=    27 IAdd=    37 IPass= 1 DotMx2= 1.91D-02
 OrtVc1:  Ph=3 IOff=     0 NNewB=    27 IAdd=    37 IPass= 2 DotMx2= 9.17D-19
 OrtVc1:  IOff=     0 IS=    31 I=    37 K1=T IndO=    34 NNew1=     7 Dot= 2.53D-04 DotN= 2.53D-04 ElMax1= 5.75D-03 ElMax1N= 5.75D-03
 OrtVc1:  Ph=3 IOff=     0 NNewB=    27 IAdd=    38 IPass= 1 DotMx2= 1.91D-02
 OrtVc1:  Ph=3 IOff=     0 NNewB=    27 IAdd=    38 IPass= 2 DotMx2= 2.80D-18
 OrtVc1:  IOff=     0 IS=    31 I=    38 K1=T IndO=    35 NNew1=     8 Dot= 2.53D-04 DotN= 2.53D-04 ElMax1= 5.75D-03 ElMax1N= 5.75D-03
 OrtVc1:  Ph=3 IOff=     0 NNewB=    27 IAdd=    39 IPass= 1 DotMx2= 3.31D-03
 OrtVc1:  Ph=3 IOff=     0 NNewB=    27 IAdd=    39 IPass= 2 DotMx2= 5.26D-19
 OrtVc1:  IOff=     0 IS=    31 I=    39 K1=T IndO=    36 NNew1=     9 Dot= 1.71D-03 DotN= 1.71D-03 ElMax1= 1.15D-02 ElMax1N= 1.15D-02
 OrtVc1:  Ph=3 IOff=     0 NNewB=    27 IAdd=    40 IPass= 1 DotMx2= 4.84D-02
 OrtVc1:  Ph=3 IOff=     0 NNewB=    27 IAdd=    40 IPass= 2 DotMx2= 2.52D-18
 OrtVc1:  IOff=     0 IS=    31 I=    40 K1=T IndO=    37 NNew1=    10 Dot= 8.03D-03 DotN= 8.03D-03 ElMax1= 3.21D-02 ElMax1N= 3.21D-02
 Iteration     2 Dimension    77 NMult    77
 Cannot handle 2e integral symmetry, ISym2E=1.
 CISAX:  IP=  1 NPass=   1 NMax=    37.
 CISAX will form    37 AO SS matrices at one time.
 NMat=    37 NSing=    37.
 FoFPCM: IWhat = 3 DoEle= T DoNuc= F Delta=T   Init=T Scale=  1.000000
         MinMlt= 0 MaxMlt= 0 DoP2C= F NMatP= 37 NVecW=  0 NTs=     434
 FoFPCM: IWhat = 4 DoEle= T DoNuc= F Delta=T   Init=F Scale=  1.000000
         MinMlt= 0 MaxMlt= 0 DoP2C= F NMatP=  0 NVecW= 37 NTs=     434
 OrtVec:  Test1= 1.00D+00 Test2= 1.00D-08
 OrtVec:  NIn=     77 NOld=      0 NBNew=     77 NBOld=     77
 OrtVc1:  Ph=1 IOff=     0 IPass= 1 DotMx1= 0.00D+00
 OrtVc1:  Ph=2 IOff=     0 IPass= 1 DotMx1= 0.00D+00
 OrtVc1:  IOff=     0 IS=     1 I=     1 K1=T IndO=     1 NNew1=     1 Dot= 1.00D+00 DotN= 1.00D+00 ElMax1= 3.26D-01 ElMax1N= 3.26D-01
 OrtVc1:  Ph=3 IOff=     0 NNewB=     0 IAdd=     2 IPass= 1 DotMx2= 1.52D-15
 OrtVc1:  IOff=     0 IS=     1 I=     2 K1=T IndO=     2 NNew1=     2 Dot= 1.00D+00 DotN= 1.00D+00 ElMax1= 3.61D-01 ElMax1N= 3.61D-01
 OrtVc1:  Ph=3 IOff=     0 NNewB=     0 IAdd=     3 IPass= 1 DotMx2= 0.00D+00
 OrtVc1:  IOff=     0 IS=     1 I=     3 K1=T IndO=     3 NNew1=     3 Dot= 1.00D+00 DotN= 1.00D+00 ElMax1= 3.61D-01 ElMax1N= 3.61D-01
 OrtVc1:  Ph=3 IOff=     0 NNewB=     0 IAdd=     4 IPass= 1 DotMx2= 0.00D+00
 OrtVc1:  IOff=     0 IS=     1 I=     4 K1=T IndO=     4 NNew1=     4 Dot= 1.00D+00 DotN= 1.00D+00 ElMax1= 6.72D-01 ElMax1N= 6.72D-01
 OrtVc1:  Ph=3 IOff=     0 NNewB=     0 IAdd=     5 IPass= 1 DotMx2= 8.41D-17
 OrtVc1:  IOff=     0 IS=     1 I=     5 K1=T IndO=     5 NNew1=     5 Dot= 1.00D+00 DotN= 1.00D+00 ElMax1= 6.72D-01 ElMax1N= 6.72D-01
 OrtVc1:  Ph=3 IOff=     0 NNewB=     0 IAdd=     6 IPass= 1 DotMx2= 1.20D-15
 OrtVc1:  IOff=     0 IS=     1 I=     6 K1=T IndO=     6 NNew1=     6 Dot= 1.00D+00 DotN= 1.00D+00 ElMax1= 6.68D-01 ElMax1N= 6.68D-01
 OrtVc1:  Ph=3 IOff=     0 NNewB=     0 IAdd=     7 IPass= 1 DotMx2= 1.84D-16
 OrtVc1:  IOff=     0 IS=     1 I=     7 K1=T IndO=     7 NNew1=     7 Dot= 1.00D+00 DotN= 1.00D+00 ElMax1= 5.31D-01 ElMax1N= 5.31D-01
 OrtVc1:  Ph=3 IOff=     0 NNewB=     0 IAdd=     8 IPass= 1 DotMx2= 4.03D-16
 OrtVc1:  IOff=     0 IS=     1 I=     8 K1=T IndO=     8 NNew1=     8 Dot= 1.00D+00 DotN= 1.00D+00 ElMax1= 5.31D-01 ElMax1N= 5.31D-01
 OrtVc1:  Ph=3 IOff=     0 NNewB=     0 IAdd=     9 IPass= 1 DotMx2= 3.06D-16
 OrtVc1:  IOff=     0 IS=     1 I=     9 K1=T IndO=     9 NNew1=     9 Dot= 1.00D+00 DotN= 1.00D+00 ElMax1= 4.93D-01 ElMax1N= 4.93D-01
 OrtVc1:  Ph=3 IOff=     0 NNewB=     0 IAdd=    10 IPass= 1 DotMx2= 1.67D-16
 OrtVc1:  IOff=     0 IS=     1 I=    10 K1=T IndO=    10 NNew1=    10 Dot= 1.00D+00 DotN= 1.00D+00 ElMax1= 3.78D-01 ElMax1N= 3.78D-01
 OrtVc1:  Ph=3 IOff=     0 NNewB=     0 IAdd=    11 IPass= 1 DotMx2= 2.26D-16
 OrtVc1:  IOff=     0 IS=     1 I=    11 K1=T IndO=    11 NNew1=    11 Dot= 1.00D+00 DotN= 1.00D+00 ElMax1= 6.56D-01 ElMax1N= 6.56D-01
 OrtVc1:  Ph=3 IOff=     0 NNewB=     0 IAdd=    12 IPass= 1 DotMx2= 1.99D-16
 OrtVc1:  IOff=     0 IS=     1 I=    12 K1=T IndO=    12 NNew1=    12 Dot= 1.00D+00 DotN= 1.00D+00 ElMax1= 6.56D-01 ElMax1N= 6.56D-01
 OrtVc1:  Ph=3 IOff=     0 NNewB=     0 IAdd=    13 IPass= 1 DotMx2= 3.99D-16
 OrtVc1:  IOff=     0 IS=     1 I=    13 K1=T IndO=    13 NNew1=    13 Dot= 1.00D+00 DotN= 1.00D+00 ElMax1= 3.45D-01 ElMax1N= 3.45D-01
 OrtVc1:  Ph=3 IOff=     0 NNewB=     0 IAdd=    14 IPass= 1 DotMx2= 3.89D-16
 OrtVc1:  IOff=     0 IS=     1 I=    14 K1=T IndO=    14 NNew1=    14 Dot= 1.00D+00 DotN= 1.00D+00 ElMax1= 3.45D-01 ElMax1N= 3.45D-01
 OrtVc1:  Ph=3 IOff=     0 NNewB=     0 IAdd=    15 IPass= 1 DotMx2= 3.27D-16
 OrtVc1:  IOff=     0 IS=     1 I=    15 K1=T IndO=    15 NNew1=    15 Dot= 1.00D+00 DotN= 1.00D+00 ElMax1= 3.51D-01 ElMax1N= 3.51D-01
 OrtVc1:  Ph=3 IOff=     0 NNewB=     0 IAdd=    16 IPass= 1 DotMx2= 4.95D-16
 OrtVc1:  IOff=     0 IS=     1 I=    16 K1=T IndO=    16 NNew1=    16 Dot= 1.00D+00 DotN= 1.00D+00 ElMax1= 3.51D-01 ElMax1N= 3.51D-01
 OrtVc1:  Ph=3 IOff=     0 NNewB=     0 IAdd=    17 IPass= 1 DotMx2= 8.19D-16
 OrtVc1:  IOff=     0 IS=     1 I=    17 K1=T IndO=    17 NNew1=    17 Dot= 1.00D+00 DotN= 1.00D+00 ElMax1= 6.72D-01 ElMax1N= 6.72D-01
 OrtVc1:  Ph=3 IOff=     0 NNewB=     0 IAdd=    18 IPass= 1 DotMx2= 2.19D-15
 OrtVc1:  IOff=     0 IS=     1 I=    18 K1=T IndO=    18 NNew1=    18 Dot= 1.00D+00 DotN= 1.00D+00 ElMax1= 6.26D-01 ElMax1N= 6.26D-01
 OrtVc1:  Ph=3 IOff=     0 NNewB=     0 IAdd=    19 IPass= 1 DotMx2= 3.27D-16
 OrtVc1:  IOff=     0 IS=     1 I=    19 K1=T IndO=    19 NNew1=    19 Dot= 1.00D+00 DotN= 1.00D+00 ElMax1= 4.59D-01 ElMax1N= 4.59D-01
 OrtVc1:  Ph=3 IOff=     0 NNewB=     0 IAdd=    20 IPass= 1 DotMx2= 3.21D-16
 OrtVc1:  IOff=     0 IS=     1 I=    20 K1=T IndO=    20 NNew1=    20 Dot= 1.00D+00 DotN= 1.00D+00 ElMax1= 4.59D-01 ElMax1N= 4.59D-01
 OrtVc1:  Ph=3 IOff=     0 NNewB=     0 IAdd=    21 IPass= 1 DotMx2= 5.47D-16
 OrtVc1:  IOff=     0 IS=     1 I=    21 K1=T IndO=    21 NNew1=    21 Dot= 1.00D+00 DotN= 1.00D+00 ElMax1= 4.63D-01 ElMax1N= 4.63D-01
 OrtVc1:  Ph=3 IOff=     0 NNewB=     0 IAdd=    22 IPass= 1 DotMx2= 7.87D-17
 OrtVc1:  IOff=     0 IS=     1 I=    22 K1=T IndO=    22 NNew1=    22 Dot= 1.00D+00 DotN= 1.00D+00 ElMax1= 6.68D-01 ElMax1N= 6.68D-01
 OrtVc1:  Ph=3 IOff=     0 NNewB=     0 IAdd=    23 IPass= 1 DotMx2= 2.30D-16
 OrtVc1:  IOff=     0 IS=     1 I=    23 K1=T IndO=    23 NNew1=    23 Dot= 1.00D+00 DotN= 1.00D+00 ElMax1= 6.68D-01 ElMax1N= 6.68D-01
 OrtVc1:  Ph=3 IOff=     0 NNewB=     0 IAdd=    24 IPass= 1 DotMx2= 1.97D-16
 OrtVc1:  IOff=     0 IS=     1 I=    24 K1=T IndO=    24 NNew1=    24 Dot= 1.00D+00 DotN= 1.00D+00 ElMax1= 3.92D-01 ElMax1N= 3.92D-01
 OrtVc1:  Ph=3 IOff=     0 NNewB=     0 IAdd=    25 IPass= 1 DotMx2= 7.32D-17
 OrtVc1:  IOff=     0 IS=     1 I=    25 K1=T IndO=    25 NNew1=    25 Dot= 1.00D+00 DotN= 1.00D+00 ElMax1= 3.80D-01 ElMax1N= 3.80D-01
 OrtVc1:  Ph=3 IOff=     0 NNewB=     0 IAdd=    26 IPass= 1 DotMx2= 1.60D-14
 OrtVc1:  IOff=     0 IS=     1 I=    26 K1=T IndO=    26 NNew1=    26 Dot= 1.00D+00 DotN= 1.00D+00 ElMax1= 3.80D-01 ElMax1N= 3.80D-01
 OrtVc1:  Ph=3 IOff=     0 NNewB=     0 IAdd=    27 IPass= 1 DotMx2= 3.62D-14
 OrtVc1:  IOff=     0 IS=     1 I=    27 K1=T IndO=    27 NNew1=    27 Dot= 1.00D+00 DotN= 1.00D+00 ElMax1= 6.38D-01 ElMax1N= 6.38D-01
 OrtVc1:  Ph=3 IOff=     0 NNewB=     0 IAdd=    28 IPass= 1 DotMx2= 4.46D-16
 OrtVc1:  IOff=     0 IS=     1 I=    28 K1=T IndO=    28 NNew1=    28 Dot= 1.00D+00 DotN= 1.00D+00 ElMax1= 4.33D-01 ElMax1N= 4.33D-01
 OrtVc1:  Ph=3 IOff=     0 NNewB=     0 IAdd=    29 IPass= 1 DotMx2= 2.74D-16
 OrtVc1:  IOff=     0 IS=     1 I=    29 K1=T IndO=    29 NNew1=    29 Dot= 1.00D+00 DotN= 1.00D+00 ElMax1= 4.33D-01 ElMax1N= 4.33D-01
 OrtVc1:  Ph=3 IOff=     0 NNewB=     0 IAdd=    30 IPass= 1 DotMx2= 3.91D-14
 OrtVc1:  IOff=     0 IS=     1 I=    30 K1=T IndO=    30 NNew1=    30 Dot= 1.00D+00 DotN= 1.00D+00 ElMax1= 5.82D-01 ElMax1N= 5.82D-01
 OrtVc1:  Ph=2 IOff=    30 IPass= 1 DotMx1= 2.05D-14
 OrtVc1:  IOff=     0 IS=    31 I=    31 K1=T IndO=    31 NNew1=     1 Dot= 1.00D+00 DotN= 1.00D+00 ElMax1= 4.00D-01 ElMax1N= 4.00D-01
 OrtVc1:  Ph=3 IOff=     0 NNewB=    30 IAdd=    32 IPass= 1 DotMx2= 4.50D-17
 OrtVc1:  IOff=     0 IS=    31 I=    32 K1=T IndO=    32 NNew1=     2 Dot= 1.00D+00 DotN= 1.00D+00 ElMax1= 4.00D-01 ElMax1N= 4.00D-01
 OrtVc1:  Ph=3 IOff=     0 NNewB=    30 IAdd=    33 IPass= 1 DotMx2= 2.80D-16
 OrtVc1:  IOff=     0 IS=    31 I=    33 K1=T IndO=    33 NNew1=     3 Dot= 1.00D+00 DotN= 1.00D+00 ElMax1= 5.57D-01 ElMax1N= 5.57D-01
 OrtVc1:  Ph=3 IOff=     0 NNewB=    30 IAdd=    34 IPass= 1 DotMx2= 5.51D-16
 OrtVc1:  IOff=     0 IS=    31 I=    34 K1=T IndO=    34 NNew1=     4 Dot= 1.00D+00 DotN= 1.00D+00 ElMax1= 5.57D-01 ElMax1N= 5.57D-01
 OrtVc1:  Ph=3 IOff=     0 NNewB=    30 IAdd=    35 IPass= 1 DotMx2= 0.00D+00
 OrtVc1:  IOff=     0 IS=    31 I=    35 K1=T IndO=    35 NNew1=     5 Dot= 1.00D+00 DotN= 1.00D+00 ElMax1= 6.67D-01 ElMax1N= 6.67D-01
 OrtVc1:  Ph=3 IOff=     0 NNewB=    30 IAdd=    36 IPass= 1 DotMx2= 3.40D-16
 OrtVc1:  IOff=     0 IS=    31 I=    36 K1=T IndO=    36 NNew1=     6 Dot= 1.00D+00 DotN= 1.00D+00 ElMax1= 6.54D-01 ElMax1N= 6.54D-01
 OrtVc1:  Ph=3 IOff=     0 NNewB=    30 IAdd=    37 IPass= 1 DotMx2= 5.06D-17
 OrtVc1:  IOff=     0 IS=    31 I=    37 K1=T IndO=    37 NNew1=     7 Dot= 1.00D+00 DotN= 1.00D+00 ElMax1= 4.16D-01 ElMax1N= 4.16D-01
 OrtVc1:  Ph=3 IOff=     0 NNewB=    30 IAdd=    38 IPass= 1 DotMx2= 1.03D-16
 OrtVc1:  IOff=     0 IS=    31 I=    38 K1=T IndO=    38 NNew1=     8 Dot= 1.00D+00 DotN= 1.00D+00 ElMax1= 5.46D-01 ElMax1N= 5.46D-01
 OrtVc1:  Ph=3 IOff=     0 NNewB=    30 IAdd=    39 IPass= 1 DotMx2= 1.80D-16
 OrtVc1:  IOff=     0 IS=    31 I=    39 K1=T IndO=    39 NNew1=     9 Dot= 1.00D+00 DotN= 1.00D+00 ElMax1= 5.46D-01 ElMax1N= 5.46D-01
 OrtVc1:  Ph=3 IOff=     0 NNewB=    30 IAdd=    40 IPass= 1 DotMx2= 5.70D-16
 OrtVc1:  IOff=     0 IS=    31 I=    40 K1=T IndO=    40 NNew1=    10 Dot= 1.00D+00 DotN= 1.00D+00 ElMax1= 6.66D-01 ElMax1N= 6.66D-01
 OrtVc1:  Ph=3 IOff=     0 NNewB=    30 IAdd=    41 IPass= 1 DotMx2= 1.13D-16
 OrtVc1:  IOff=     0 IS=    31 I=    41 K1=T IndO=    41 NNew1=    11 Dot= 1.00D+00 DotN= 1.00D+00 ElMax1= 6.81D-01 ElMax1N= 6.81D-01
 OrtVc1:  Ph=3 IOff=     0 NNewB=    30 IAdd=    42 IPass= 1 DotMx2= 1.31D-15
 OrtVc1:  IOff=     0 IS=    31 I=    42 K1=T IndO=    42 NNew1=    12 Dot= 1.00D+00 DotN= 1.00D+00 ElMax1= 6.81D-01 ElMax1N= 6.81D-01
 OrtVc1:  Ph=3 IOff=     0 NNewB=    30 IAdd=    43 IPass= 1 DotMx2= 0.00D+00
 OrtVc1:  IOff=     0 IS=    31 I=    43 K1=T IndO=    43 NNew1=    13 Dot= 1.00D+00 DotN= 1.00D+00 ElMax1= 4.97D-01 ElMax1N= 4.97D-01
 OrtVc1:  Ph=3 IOff=     0 NNewB=    30 IAdd=    44 IPass= 1 DotMx2= 4.27D-16
 OrtVc1:  IOff=     0 IS=    31 I=    44 K1=T IndO=    44 NNew1=    14 Dot= 1.00D+00 DotN= 1.00D+00 ElMax1= 4.98D-01 ElMax1N= 4.98D-01
 OrtVc1:  Ph=3 IOff=     0 NNewB=    30 IAdd=    45 IPass= 1 DotMx2= 5.01D-14
 OrtVc1:  IOff=     0 IS=    31 I=    45 K1=T IndO=    45 NNew1=    15 Dot= 1.00D+00 DotN= 1.00D+00 ElMax1= 4.98D-01 ElMax1N= 4.98D-01
 OrtVc1:  Ph=3 IOff=     0 NNewB=    30 IAdd=    46 IPass= 1 DotMx2= 2.95D-13
 OrtVc1:  IOff=     0 IS=    31 I=    46 K1=T IndO=    46 NNew1=    16 Dot= 1.00D+00 DotN= 1.00D+00 ElMax1= 5.91D-01 ElMax1N= 5.91D-01
 OrtVc1:  Ph=3 IOff=     0 NNewB=    30 IAdd=    47 IPass= 1 DotMx2= 3.62D-16
 OrtVc1:  IOff=     0 IS=    31 I=    47 K1=T IndO=    47 NNew1=    17 Dot= 1.00D+00 DotN= 1.00D+00 ElMax1= 6.24D-01 ElMax1N= 6.24D-01
 OrtVc1:  Ph=3 IOff=     0 NNewB=    30 IAdd=    48 IPass= 1 DotMx2= 1.24D-16
 OrtVc1:  IOff=     0 IS=    31 I=    48 K1=T IndO=    48 NNew1=    18 Dot= 1.00D+00 DotN= 1.00D+00 ElMax1= 6.24D-01 ElMax1N= 6.24D-01
 OrtVc1:  Ph=3 IOff=     0 NNewB=    30 IAdd=    49 IPass= 1 DotMx2= 5.28D-16
 OrtVc1:  IOff=     0 IS=    31 I=    49 K1=T IndO=    49 NNew1=    19 Dot= 1.00D+00 DotN= 1.00D+00 ElMax1= 4.50D-01 ElMax1N= 4.50D-01
 OrtVc1:  Ph=3 IOff=     0 NNewB=    30 IAdd=    50 IPass= 1 DotMx2= 5.65D-16
 OrtVc1:  IOff=     0 IS=    31 I=    50 K1=T IndO=    50 NNew1=    20 Dot= 1.00D+00 DotN= 1.00D+00 ElMax1= 4.50D-01 ElMax1N= 4.50D-01
 OrtVc1:  Ph=3 IOff=     0 NNewB=    30 IAdd=    51 IPass= 1 DotMx2= 4.69D-16
 OrtVc1:  IOff=     0 IS=    31 I=    51 K1=T IndO=    51 NNew1=    21 Dot= 1.00D+00 DotN= 1.00D+00 ElMax1= 6.10D-01 ElMax1N= 6.10D-01
 OrtVc1:  Ph=3 IOff=     0 NNewB=    30 IAdd=    52 IPass= 1 DotMx2= 8.42D-16
 OrtVc1:  IOff=     0 IS=    31 I=    52 K1=T IndO=    52 NNew1=    22 Dot= 1.00D+00 DotN= 1.00D+00 ElMax1= 6.10D-01 ElMax1N= 6.10D-01
 OrtVc1:  Ph=3 IOff=     0 NNewB=    30 IAdd=    53 IPass= 1 DotMx2= 1.05D-13
 OrtVc1:  IOff=     0 IS=    31 I=    53 K1=T IndO=    53 NNew1=    23 Dot= 1.00D+00 DotN= 1.00D+00 ElMax1= 4.81D-01 ElMax1N= 4.81D-01
 OrtVc1:  Ph=3 IOff=     0 NNewB=    30 IAdd=    54 IPass= 1 DotMx2= 1.09D-14
 OrtVc1:  IOff=     0 IS=    31 I=    54 K1=T IndO=    54 NNew1=    24 Dot= 1.00D+00 DotN= 1.00D+00 ElMax1= 3.84D-01 ElMax1N= 3.84D-01
 OrtVc1:  Ph=3 IOff=     0 NNewB=    30 IAdd=    55 IPass= 1 DotMx2= 5.92D-16
 OrtVc1:  IOff=     0 IS=    31 I=    55 K1=T IndO=    55 NNew1=    25 Dot= 1.00D+00 DotN= 1.00D+00 ElMax1= 4.57D-01 ElMax1N= 4.57D-01
 OrtVc1:  Ph=3 IOff=     0 NNewB=    30 IAdd=    56 IPass= 1 DotMx2= 2.64D-16
 OrtVc1:  IOff=     0 IS=    31 I=    56 K1=T IndO=    56 NNew1=    26 Dot= 1.00D+00 DotN= 1.00D+00 ElMax1= 4.57D-01 ElMax1N= 4.57D-01
 OrtVc1:  Ph=3 IOff=     0 NNewB=    30 IAdd=    57 IPass= 1 DotMx2= 1.04D-13
 OrtVc1:  IOff=     0 IS=    31 I=    57 K1=T IndO=    57 NNew1=    27 Dot= 1.00D+00 DotN= 1.00D+00 ElMax1= 4.94D-01 ElMax1N= 4.94D-01
 OrtVc1:  Ph=3 IOff=     0 NNewB=    30 IAdd=    58 IPass= 1 DotMx2= 2.16D-15
 OrtVc1:  IOff=     0 IS=    31 I=    58 K1=T IndO=    58 NNew1=    28 Dot= 1.00D+00 DotN= 1.00D+00 ElMax1= 4.95D-01 ElMax1N= 4.95D-01
 OrtVc1:  Ph=3 IOff=     0 NNewB=    30 IAdd=    59 IPass= 1 DotMx2= 3.96D-16
 OrtVc1:  IOff=     0 IS=    31 I=    59 K1=T IndO=    59 NNew1=    29 Dot= 1.00D+00 DotN= 1.00D+00 ElMax1= 4.96D-01 ElMax1N= 4.96D-01
 OrtVc1:  Ph=3 IOff=     0 NNewB=    30 IAdd=    60 IPass= 1 DotMx2= 6.41D-13
 OrtVc1:  IOff=     0 IS=    31 I=    60 K1=T IndO=    60 NNew1=    30 Dot= 1.00D+00 DotN= 1.00D+00 ElMax1= 4.96D-01 ElMax1N= 4.96D-01
 OrtVc1:  Ph=2 IOff=    60 IPass= 1 DotMx1= 3.49D-07
 OrtVc1:  Ph=2 IOff=    60 IPass= 2 DotMx1= 2.23D-17
 OrtVc1:  IOff=     0 IS=    61 I=    61 K1=T IndO=    61 NNew1=     1 Dot= 1.00D+00 DotN= 1.00D+00 ElMax1= 4.73D-01 ElMax1N= 4.73D-01
 OrtVc1:  Ph=3 IOff=     0 NNewB=    60 IAdd=    62 IPass= 1 DotMx2= 0.00D+00
 OrtVc1:  IOff=     0 IS=    61 I=    62 K1=T IndO=    62 NNew1=     2 Dot= 1.00D+00 DotN= 1.00D+00 ElMax1= 3.93D-01 ElMax1N= 3.93D-01
 OrtVc1:  Ph=3 IOff=     0 NNewB=    60 IAdd=    63 IPass= 1 DotMx2= 1.26D-16
 OrtVc1:  IOff=     0 IS=    61 I=    63 K1=T IndO=    63 NNew1=     3 Dot= 1.00D+00 DotN= 1.00D+00 ElMax1= 3.93D-01 ElMax1N= 3.93D-01
 OrtVc1:  Ph=3 IOff=     0 NNewB=    60 IAdd=    64 IPass= 1 DotMx2= 3.79D-16
 OrtVc1:  IOff=     0 IS=    61 I=    64 K1=T IndO=    64 NNew1=     4 Dot= 1.00D+00 DotN= 1.00D+00 ElMax1= 3.71D-01 ElMax1N= 3.71D-01
 OrtVc1:  Ph=3 IOff=     0 NNewB=    60 IAdd=    65 IPass= 1 DotMx2= 2.77D-16
 OrtVc1:  IOff=     0 IS=    61 I=    65 K1=T IndO=    65 NNew1=     5 Dot= 1.00D+00 DotN= 1.00D+00 ElMax1= 3.71D-01 ElMax1N= 3.71D-01
 OrtVc1:  Ph=3 IOff=     0 NNewB=    60 IAdd=    66 IPass= 1 DotMx2= 2.54D-16
 OrtVc1:  IOff=     0 IS=    61 I=    66 K1=T IndO=    66 NNew1=     6 Dot= 1.00D+00 DotN= 1.00D+00 ElMax1= 3.49D-01 ElMax1N= 3.49D-01
 OrtVc1:  Ph=3 IOff=     0 NNewB=    60 IAdd=    67 IPass= 1 DotMx2= 5.61D-16
 OrtVc1:  IOff=     0 IS=    61 I=    67 K1=T IndO=    67 NNew1=     7 Dot= 1.00D+00 DotN= 1.00D+00 ElMax1= 3.15D-01 ElMax1N= 3.15D-01
 OrtVc1:  Ph=3 IOff=     0 NNewB=    60 IAdd=    68 IPass= 1 DotMx2= 3.11D-09
 OrtVc1:  Ph=3 IOff=     0 NNewB=    60 IAdd=    68 IPass= 2 DotMx2= 1.29D-17
 OrtVc1:  IOff=     0 IS=    61 I=    68 K1=T IndO=    68 NNew1=     8 Dot= 1.00D+00 DotN= 1.00D+00 ElMax1= 4.74D-01 ElMax1N= 4.74D-01
 OrtVc1:  Ph=3 IOff=     0 NNewB=    60 IAdd=    69 IPass= 1 DotMx2= 3.11D-09
 OrtVc1:  Ph=3 IOff=     0 NNewB=    60 IAdd=    69 IPass= 2 DotMx2= 1.53D-17
 OrtVc1:  IOff=     0 IS=    61 I=    69 K1=T IndO=    69 NNew1=     9 Dot= 1.00D+00 DotN= 1.00D+00 ElMax1= 4.74D-01 ElMax1N= 4.74D-01
 OrtVc1:  Ph=3 IOff=     0 NNewB=    60 IAdd=    70 IPass= 1 DotMx2= 7.62D-10
 OrtVc1:  Ph=3 IOff=     0 NNewB=    60 IAdd=    70 IPass= 2 DotMx2= 1.95D-17
 OrtVc1:  IOff=     0 IS=    61 I=    70 K1=T IndO=    70 NNew1=    10 Dot= 1.00D+00 DotN= 1.00D+00 ElMax1= 6.05D-01 ElMax1N= 6.05D-01
 OrtVc1:  Ph=3 IOff=     0 NNewB=    60 IAdd=    71 IPass= 1 DotMx2= 7.62D-10
 OrtVc1:  Ph=3 IOff=     0 NNewB=    60 IAdd=    71 IPass= 2 DotMx2= 8.64D-18
 OrtVc1:  IOff=     0 IS=    61 I=    71 K1=T IndO=    71 NNew1=    11 Dot= 1.00D+00 DotN= 1.00D+00 ElMax1= 6.05D-01 ElMax1N= 6.05D-01
 OrtVc1:  Ph=3 IOff=     0 NNewB=    60 IAdd=    72 IPass= 1 DotMx2= 7.53D-16
 OrtVc1:  IOff=     0 IS=    61 I=    72 K1=T IndO=    72 NNew1=    12 Dot= 1.00D+00 DotN= 1.00D+00 ElMax1= 2.92D-01 ElMax1N= 2.92D-01
 OrtVc1:  Ph=3 IOff=     0 NNewB=    60 IAdd=    73 IPass= 1 DotMx2= 8.30D-16
 OrtVc1:  IOff=     0 IS=    61 I=    73 K1=T IndO=    73 NNew1=    13 Dot= 1.00D+00 DotN= 1.00D+00 ElMax1= 4.88D-01 ElMax1N= 4.88D-01
 OrtVc1:  Ph=3 IOff=     0 NNewB=    60 IAdd=    74 IPass= 1 DotMx2= 1.05D-09
 OrtVc1:  Ph=3 IOff=     0 NNewB=    60 IAdd=    74 IPass= 2 DotMx2= 3.75D-17
 OrtVc1:  IOff=     0 IS=    61 I=    74 K1=T IndO=    74 NNew1=    14 Dot= 1.00D+00 DotN= 1.00D+00 ElMax1= 5.28D-01 ElMax1N= 5.28D-01
 OrtVc1:  Ph=3 IOff=     0 NNewB=    60 IAdd=    75 IPass= 1 DotMx2= 1.05D-09
 OrtVc1:  Ph=3 IOff=     0 NNewB=    60 IAdd=    75 IPass= 2 DotMx2= 2.38D-17
 OrtVc1:  IOff=     0 IS=    61 I=    75 K1=T IndO=    75 NNew1=    15 Dot= 1.00D+00 DotN= 1.00D+00 ElMax1= 5.28D-01 ElMax1N= 5.28D-01
 OrtVc1:  Ph=3 IOff=     0 NNewB=    60 IAdd=    76 IPass= 1 DotMx2= 4.30D-16
 OrtVc1:  IOff=     0 IS=    61 I=    76 K1=T IndO=    76 NNew1=    16 Dot= 1.00D+00 DotN= 1.00D+00 ElMax1= 4.46D-01 ElMax1N= 4.46D-01
 OrtVc1:  Ph=3 IOff=     0 NNewB=    60 IAdd=    77 IPass= 1 DotMx2= 6.72D-16
 OrtVc1:  IOff=     0 IS=    61 I=    77 K1=T IndO=    77 NNew1=    17 Dot= 1.00D+00 DotN= 1.00D+00 ElMax1= 3.02D-01 ElMax1N= 3.02D-01
 Root      1 not converged, maximum delta is    0.006313494740824
 Root      2 not converged, maximum delta is    0.009819868446735
 Root      3 not converged, maximum delta is    0.009819869508962
 Root      4 not converged, maximum delta is    0.020790608200657
 Root      5 not converged, maximum delta is    0.020790608200657
 Root      6 not converged, maximum delta is    0.023290139625706
 Root      7 not converged, maximum delta is    0.246264724598120
 Root      8 not converged, maximum delta is    0.246264724598122
 Root      9 not converged, maximum delta is    0.038425044506977
 Root     10 not converged, maximum delta is    0.004218958408857
 Excitation Energies [eV] at current iteration:
 Root      1 :     6.676726833862951   Change is   -0.006544756681526
 Root      2 :     6.998407014257308   Change is   -0.012962464134542
 Root      3 :     6.998407244580783   Change is   -0.012962460052157
 Root      4 :     7.118600420469119   Change is   -0.003711104339997
 Root      5 :     7.118600420469190   Change is   -0.003711104339967
 Root      6 :     7.508293077051438   Change is   -0.041531262356702
 Root      7 :     7.971560542575384   Change is   -0.089580448231684
 Root      8 :     7.971560542575386   Change is   -0.089580448231687
 Root      9 :     8.614212511783967   Change is   -0.144053662878639
 Root     10 :     9.269503535207468   Change is   -0.002365138305849
 OrtVec:  Test1= 1.00D+00 Test2= 1.00D-08
 OrtVec:  NIn=     10 NOld=     77 NBNew=     10 NBOld=     87
 OrtVc1:  Ph=1 IOff=     0 IPass= 1 DotMx1= 2.27D-04
 OrtVc1:  Ph=1 IOff=     0 IPass= 2 DotMx1= 5.32D-20
 OrtVc1:  Ph=2 IOff=     0 IPass= 1 DotMx1= 0.00D+00
 OrtVc1:  IOff=     0 IS=     1 I=     1 K1=F IndO=     0 NNew1=     0 Dot= 0.00D+00 DotN= 0.00D+00 ElMax1= 0.00D+00 ElMax1N= 0.00D+00
 OrtVc1:  IOff=     0 IS=     1 I=     2 K1=F IndO=     0 NNew1=     0 Dot= 0.00D+00 DotN= 0.00D+00 ElMax1= 0.00D+00 ElMax1N= 0.00D+00
 OrtVc1:  IOff=     0 IS=     1 I=     3 K1=F IndO=     0 NNew1=     0 Dot= 0.00D+00 DotN= 0.00D+00 ElMax1= 0.00D+00 ElMax1N= 0.00D+00
 OrtVc1:  IOff=     0 IS=     1 I=     4 K1=T IndO=     1 NNew1=     1 Dot= 2.16D-08 DotN= 2.16D-08 ElMax1= 6.23D-05 ElMax1N= 6.23D-05
 OrtVc1:  Ph=3 IOff=     0 NNewB=     0 IAdd=     5 IPass= 1 DotMx2= 1.06D-17
 OrtVc1:  IOff=     0 IS=     1 I=     5 K1=T IndO=     2 NNew1=     2 Dot= 2.16D-08 DotN= 2.16D-08 ElMax1= 6.23D-05 ElMax1N= 6.23D-05
 OrtVc1:  Ph=3 IOff=     0 NNewB=     0 IAdd=     6 IPass= 1 DotMx2= 1.65D-20
 OrtVc1:  IOff=     0 IS=     1 I=     6 K1=T IndO=     3 NNew1=     3 Dot= 1.10D-06 DotN= 1.10D-06 ElMax1= 4.20D-04 ElMax1N= 4.20D-04
 OrtVc1:  Ph=3 IOff=     0 NNewB=     0 IAdd=     7 IPass= 1 DotMx2= 1.01D-04
 OrtVc1:  Ph=3 IOff=     0 NNewB=     0 IAdd=     7 IPass= 2 DotMx2= 2.18D-20
 OrtVc1:  IOff=     0 IS=     1 I=     7 K1=T IndO=     4 NNew1=     4 Dot= 1.60D-07 DotN= 1.60D-07 ElMax1= 1.79D-04 ElMax1N= 1.79D-04
 OrtVc1:  Ph=3 IOff=     0 NNewB=     0 IAdd=     8 IPass= 1 DotMx2= 1.01D-04
 OrtVc1:  Ph=3 IOff=     0 NNewB=     0 IAdd=     8 IPass= 2 DotMx2= 1.23D-20
 OrtVc1:  IOff=     0 IS=     1 I=     8 K1=T IndO=     5 NNew1=     5 Dot= 1.60D-07 DotN= 1.60D-07 ElMax1= 1.79D-04 ElMax1N= 1.79D-04
 OrtVc1:  Ph=3 IOff=     0 NNewB=     0 IAdd=     9 IPass= 1 DotMx2= 1.13D-03
 OrtVc1:  Ph=3 IOff=     0 NNewB=     0 IAdd=     9 IPass= 2 DotMx2= 1.91D-19
 OrtVc1:  IOff=     0 IS=     1 I=     9 K1=T IndO=     6 NNew1=     6 Dot= 9.36D-07 DotN= 9.36D-07 ElMax1= 4.07D-04 ElMax1N= 4.07D-04
 OrtVc1:  IOff=     0 IS=     1 I=    10 K1=F IndO=     0 NNew1=     6 Dot= 0.00D+00 DotN= 0.00D+00 ElMax1= 0.00D+00 ElMax1N= 0.00D+00
 Iteration     3 Dimension    83 NMult    83
 Cannot handle 2e integral symmetry, ISym2E=1.
 CISAX:  IP=  1 NPass=   1 NMax=     6.
 CISAX will form     6 AO SS matrices at one time.
 NMat=     6 NSing=     6.
 FoFPCM: IWhat = 3 DoEle= T DoNuc= F Delta=T   Init=T Scale=  1.000000
         MinMlt= 0 MaxMlt= 0 DoP2C= F NMatP=  6 NVecW=  0 NTs=     434
 FoFPCM: IWhat = 4 DoEle= T DoNuc= F Delta=T   Init=F Scale=  1.000000
         MinMlt= 0 MaxMlt= 0 DoP2C= F NMatP=  0 NVecW=  6 NTs=     434
 OrtVec:  Test1= 1.00D+00 Test2= 1.00D-08
 OrtVec:  NIn=     83 NOld=      0 NBNew=     83 NBOld=     83
 OrtVc1:  Ph=1 IOff=     0 IPass= 1 DotMx1= 0.00D+00
 OrtVc1:  Ph=2 IOff=     0 IPass= 1 DotMx1= 0.00D+00
 OrtVc1:  IOff=     0 IS=     1 I=     1 K1=T IndO=     1 NNew1=     1 Dot= 1.00D+00 DotN= 1.00D+00 ElMax1= 3.26D-01 ElMax1N= 3.26D-01
 OrtVc1:  Ph=3 IOff=     0 NNewB=     0 IAdd=     2 IPass= 1 DotMx2= 1.83D-16
 OrtVc1:  IOff=     0 IS=     1 I=     2 K1=T IndO=     2 NNew1=     2 Dot= 1.00D+00 DotN= 1.00D+00 ElMax1= 3.61D-01 ElMax1N= 3.61D-01
 OrtVc1:  Ph=3 IOff=     0 NNewB=     0 IAdd=     3 IPass= 1 DotMx2= 0.00D+00
 OrtVc1:  IOff=     0 IS=     1 I=     3 K1=T IndO=     3 NNew1=     3 Dot= 1.00D+00 DotN= 1.00D+00 ElMax1= 3.61D-01 ElMax1N= 3.61D-01
 OrtVc1:  Ph=3 IOff=     0 NNewB=     0 IAdd=     4 IPass= 1 DotMx2= 0.00D+00
 OrtVc1:  IOff=     0 IS=     1 I=     4 K1=T IndO=     4 NNew1=     4 Dot= 1.00D+00 DotN= 1.00D+00 ElMax1= 6.72D-01 ElMax1N= 6.72D-01
 OrtVc1:  Ph=3 IOff=     0 NNewB=     0 IAdd=     5 IPass= 1 DotMx2= 5.29D-16
 OrtVc1:  IOff=     0 IS=     1 I=     5 K1=T IndO=     5 NNew1=     5 Dot= 1.00D+00 DotN= 1.00D+00 ElMax1= 6.72D-01 ElMax1N= 6.72D-01
 OrtVc1:  Ph=3 IOff=     0 NNewB=     0 IAdd=     6 IPass= 1 DotMx2= 6.57D-16
 OrtVc1:  IOff=     0 IS=     1 I=     6 K1=T IndO=     6 NNew1=     6 Dot= 1.00D+00 DotN= 1.00D+00 ElMax1= 6.68D-01 ElMax1N= 6.68D-01
 OrtVc1:  Ph=3 IOff=     0 NNewB=     0 IAdd=     7 IPass= 1 DotMx2= 4.31D-16
 OrtVc1:  IOff=     0 IS=     1 I=     7 K1=T IndO=     7 NNew1=     7 Dot= 1.00D+00 DotN= 1.00D+00 ElMax1= 5.61D-01 ElMax1N= 5.61D-01
 OrtVc1:  Ph=3 IOff=     0 NNewB=     0 IAdd=     8 IPass= 1 DotMx2= 5.73D-17
 OrtVc1:  IOff=     0 IS=     1 I=     8 K1=T IndO=     8 NNew1=     8 Dot= 1.00D+00 DotN= 1.00D+00 ElMax1= 5.61D-01 ElMax1N= 5.61D-01
 OrtVc1:  Ph=3 IOff=     0 NNewB=     0 IAdd=     9 IPass= 1 DotMx2= 2.12D-16
 OrtVc1:  IOff=     0 IS=     1 I=     9 K1=T IndO=     9 NNew1=     9 Dot= 1.00D+00 DotN= 1.00D+00 ElMax1= 4.93D-01 ElMax1N= 4.93D-01
 OrtVc1:  Ph=3 IOff=     0 NNewB=     0 IAdd=    10 IPass= 1 DotMx2= 1.31D-17
 OrtVc1:  IOff=     0 IS=     1 I=    10 K1=T IndO=    10 NNew1=    10 Dot= 1.00D+00 DotN= 1.00D+00 ElMax1= 3.78D-01 ElMax1N= 3.78D-01
 OrtVc1:  Ph=3 IOff=     0 NNewB=     0 IAdd=    11 IPass= 1 DotMx2= 8.44D-17
 OrtVc1:  IOff=     0 IS=     1 I=    11 K1=T IndO=    11 NNew1=    11 Dot= 1.00D+00 DotN= 1.00D+00 ElMax1= 6.56D-01 ElMax1N= 6.56D-01
 OrtVc1:  Ph=3 IOff=     0 NNewB=     0 IAdd=    12 IPass= 1 DotMx2= 3.02D-16
[...]
 States   9 and   7        -0.0096      0.0070      0.0000      0.0040
 States   9 and   8         0.0000      0.0000      0.0000      0.0000
 States  10 and   1         0.0000      0.0000     -0.1061      0.0788
 States  10 and   2         0.0000      0.0000      0.0000      0.0000
 States  10 and   3         0.0000      0.0000      0.0000      0.0000
 States  10 and   4         0.0067      0.1238      0.0000      0.1296
 States  10 and   5        -0.1238      0.0067      0.0000      0.1296
 States  10 and   6         0.0000      0.0000      0.0000      0.0000
 States  10 and   7         0.0190      0.0260      0.0000      0.0145
 States  10 and   8        -0.0260      0.0190      0.0000      0.0145
 States  10 and   9         0.0000      0.0000      0.0000      0.0000
 Excited to excited state transition magnetic dipole moments (Au):
                              X           Y           Z
 States   2 and   1         0.0000      0.0000      0.0000
 States   3 and   1         0.0000      0.0000      0.0000
 States   3 and   2         0.0000      0.0000      0.0000
 States   4 and   1        -0.2486      0.0135      0.0000
 States   4 and   2        -0.3273     -0.0178      0.0000
 States   4 and   3         0.0000      0.0000      0.0000
 States   5 and   1        -0.0135     -0.2486      0.0000
 States   5 and   2        -0.0178      0.3273      0.0000
 States   5 and   3         0.3273      0.0178      0.0000
 States   5 and   4         0.0000      0.0000      0.0000
 States   6 and   1         0.0000      0.0000      0.0000
 States   6 and   2         0.0000      0.0000      0.0000
 States   6 and   3         0.0000      0.0000      0.0000
 States   6 and   4        -0.0146     -0.2682      0.0000
 States   6 and   5         0.0000      0.0000      0.0000
 States   7 and   1         0.0002     -0.0001      0.0000
 States   7 and   2        -0.0846     -0.0617      0.0000
 States   7 and   3        -0.0617      0.0846      0.0000
 States   7 and   4         0.0000      0.0000      0.0000
 States   7 and   5         0.0000      0.0000      0.0000
 States   7 and   6         0.0000      0.0000      0.0000
 States   8 and   1         0.0001      0.0002      0.0000
 States   8 and   2        -0.0617      0.0846      0.0000
 States   8 and   3         0.0846      0.0617      0.0000
 States   8 and   4         0.0000      0.0000      0.0000
 States   8 and   5         0.0000      0.0000      0.0000
 States   8 and   6         0.5439     -0.3967      0.0000
 States   8 and   7         0.0000      0.0000      0.0000
 States   9 and   1         0.0000      0.0000      0.0000
 States   9 and   2         0.0000      0.0000      0.0000
 States   9 and   3         0.0000      0.0000      0.0000
 States   9 and   4        -0.0343     -0.6305      0.0000
 States   9 and   5         0.6305     -0.0343      0.0000
 States   9 and   6         0.0000      0.0000      0.0000
 States   9 and   7        -0.0611     -0.0837      0.0000
 States   9 and   8         0.0000      0.0000      0.0000
 States  10 and   1         0.0000      0.0000      0.0000
 States  10 and   2         0.0000      0.0000      0.0000
 States  10 and   3         0.0000      0.0000      0.0000
 States  10 and   4         0.6439     -0.0350      0.0000
 States  10 and   5         0.0350      0.6439      0.0000
 States  10 and   6         0.0000      0.0000      0.0000
 States  10 and   7         0.1333     -0.0972      0.0000
 States  10 and   8         0.0972      0.1333      0.0000
 States  10 and   9         0.0000      0.0000      0.0000
 Transition densities among all excited states written to RWF  633

 Excitation energies and oscillator strengths:
 
 Excited state symmetry could not be determined.
 Excited State   1:      Singlet-?Sym    6.6767 eV  185.70 nm  f=0.0000  <S**2>=0.000
       7 -> 11        -0.32561
       7 -> 13        -0.24941
       7 -> 16         0.28260
       8 -> 10         0.32561
       8 -> 14         0.24941
       8 -> 17        -0.28260
 This state for optimization and/or second-order correction.
 Total Energy, E(CIS) =  -99.4864605753    
 Copying the excited state density for this state as the 1-particle RhoCI density.
    CIS Density (Total): 
                1             2             3             4             5 
      1  0.201988D+01
      2 -0.245754D-05  0.276527D-01
      3  0.000000D+00  0.000000D+00  0.586587D-01
      4  0.000000D+00  0.000000D+00  0.000000D+00  0.586587D-01
      5 -0.573244D-01  0.357670D-01  0.000000D+00  0.000000D+00  0.484512D-01
      6 -0.247082D-01  0.952715D-02  0.000000D+00  0.000000D+00  0.141018D-01
      7  0.000000D+00  0.000000D+00  0.349988D-01  0.000000D+00  0.000000D+00
      8  0.000000D+00  0.000000D+00  0.000000D+00  0.349988D-01  0.000000D+00
      9  0.177278D-01 -0.587432D-02  0.000000D+00  0.000000D+00 -0.763213D-02
     10  0.325131D-01 -0.221085D-01  0.000000D+00  0.000000D+00 -0.339413D-01
     11 -0.551708D-01  0.397828D-01  0.000000D+00  0.000000D+00  0.609698D-01
     12  0.000000D+00  0.000000D+00  0.646960D-01  0.000000D+00  0.000000D+00
     13  0.000000D+00  0.000000D+00  0.000000D+00  0.646960D-01  0.000000D+00
     14  0.827736D-01 -0.102747D+00  0.000000D+00  0.000000D+00 -0.132541D+00
     15 -0.971027D-01  0.946604D-01  0.000000D+00  0.000000D+00  0.129315D+00
     16  0.000000D+00  0.000000D+00  0.843973D-01  0.000000D+00  0.000000D+00
     17  0.000000D+00  0.000000D+00  0.000000D+00  0.843973D-01  0.000000D+00
     18  0.484028D-01 -0.537795D-01  0.000000D+00  0.000000D+00 -0.745524D-01
     19 -0.311707D-02  0.225306D-01  0.000000D+00  0.000000D+00  0.202933D-01
     20  0.154510D-01 -0.474695D-01  0.000000D+00  0.000000D+00 -0.482668D-01
     21  0.000000D+00  0.000000D+00 -0.589261D-01  0.000000D+00  0.000000D+00
     22  0.000000D+00  0.000000D+00  0.000000D+00 -0.589261D-01  0.000000D+00
     23 -0.317147D-01  0.405030D-01  0.000000D+00  0.000000D+00  0.526135D-01
     24 -0.907397D-02 -0.167165D-01  0.000000D+00  0.000000D+00 -0.535041D-02
     25  0.000000D+00  0.000000D+00 -0.707919D-01  0.000000D+00  0.000000D+00
     26  0.000000D+00  0.000000D+00  0.000000D+00 -0.707919D-01  0.000000D+00
     27 -0.147385D-01  0.118764D-01  0.000000D+00  0.000000D+00  0.171389D-01
                6             7             8             9            10 
      6  0.839301D-02
      7  0.000000D+00  0.214090D-01
      8  0.000000D+00  0.000000D+00  0.214090D-01
      9  0.112891D-02  0.000000D+00  0.000000D+00  0.402084D-02
     10 -0.651057D-02  0.000000D+00  0.000000D+00  0.109317D-01  0.207540D+01
     11  0.812002D-02  0.000000D+00  0.000000D+00 -0.216609D-01 -0.127377D+00
     12  0.000000D+00  0.483605D-01  0.000000D+00  0.000000D+00  0.000000D+00
     13  0.000000D+00  0.000000D+00  0.483605D-01  0.000000D+00  0.000000D+00
     14 -0.485642D-01  0.000000D+00  0.000000D+00  0.919312D-02  0.144105D-01
     15  0.318548D-01  0.000000D+00  0.000000D+00 -0.264040D-01 -0.169319D+00
     16  0.000000D+00  0.564809D-01  0.000000D+00  0.000000D+00  0.000000D+00
     17  0.000000D+00  0.000000D+00  0.564809D-01  0.000000D+00  0.000000D+00
     18 -0.251326D-01  0.000000D+00  0.000000D+00  0.966666D-02  0.805913D-01
     19 -0.117330D-01  0.000000D+00  0.000000D+00 -0.143832D-01  0.178206D-01
     20  0.182134D-01  0.000000D+00  0.000000D+00  0.294166D-01 -0.355426D-01
     21  0.000000D+00 -0.220940D-01  0.000000D+00  0.000000D+00  0.000000D+00
     22  0.000000D+00  0.000000D+00 -0.220940D-01  0.000000D+00  0.000000D+00
     23  0.522665D-01  0.000000D+00  0.000000D+00  0.258870D-01  0.105696D+00
     24  0.523991D-01  0.000000D+00  0.000000D+00  0.414673D-01 -0.159101D-01
     25  0.000000D+00 -0.330862D-01  0.000000D+00  0.000000D+00  0.000000D+00
     26  0.000000D+00  0.000000D+00 -0.330862D-01  0.000000D+00  0.000000D+00
     27  0.258897D-01  0.000000D+00  0.000000D+00  0.156111D-01  0.467044D-01
               11            12            13            14            15 
     11  0.341834D+00
     12  0.000000D+00  0.252119D+00
     13  0.000000D+00  0.000000D+00  0.252119D+00
     14  0.252679D-01  0.000000D+00  0.000000D+00  0.508527D+00
     15  0.274653D+00  0.000000D+00  0.000000D+00 -0.273124D+00  0.395293D+00
     16  0.000000D+00  0.206533D+00  0.000000D+00  0.000000D+00  0.000000D+00
     17  0.000000D+00  0.000000D+00  0.206533D+00  0.000000D+00  0.000000D+00
     18 -0.136906D+00  0.000000D+00  0.000000D+00  0.178655D+00 -0.216265D+00
     19 -0.317615D-01  0.000000D+00  0.000000D+00 -0.784028D-01  0.566020D-01
     20  0.570192D-01  0.000000D+00  0.000000D+00  0.188844D+00 -0.932144D-01
     21  0.000000D+00  0.176983D+00  0.000000D+00  0.000000D+00  0.000000D+00
     22  0.000000D+00  0.000000D+00  0.176983D+00  0.000000D+00  0.000000D+00
     23 -0.259145D+00  0.000000D+00  0.000000D+00 -0.403856D+00 -0.634588D-02
     24 -0.115531D-01  0.000000D+00  0.000000D+00 -0.339101D-01 -0.373055D-01
     25  0.000000D+00  0.914290D-01  0.000000D+00  0.000000D+00  0.000000D+00
     26  0.000000D+00  0.000000D+00  0.914290D-01  0.000000D+00  0.000000D+00
     27 -0.112355D+00  0.000000D+00  0.000000D+00 -0.158374D+00 -0.168814D-01
               16            17            18            19            20 
     16  0.192631D+00
     17  0.000000D+00  0.192631D+00
     18  0.000000D+00  0.000000D+00  0.129383D+00
     19  0.000000D+00  0.000000D+00  0.174001D-01  0.208285D+01
     20  0.000000D+00  0.000000D+00  0.852553D-02 -0.160780D+00  0.442425D+00
     21  0.670821D-01  0.000000D+00  0.000000D+00  0.000000D+00  0.000000D+00
     22  0.000000D+00  0.670821D-01  0.000000D+00  0.000000D+00  0.000000D+00
     23  0.000000D+00  0.000000D+00 -0.620533D-01 -0.315724D-01  0.367033D-01
     24  0.000000D+00  0.000000D+00 -0.615345D-01 -0.279306D+00  0.503033D+00
     25  0.452922D-02  0.000000D+00  0.000000D+00  0.000000D+00  0.000000D+00
     26  0.000000D+00  0.452922D-02  0.000000D+00  0.000000D+00  0.000000D+00
     27  0.000000D+00  0.000000D+00 -0.257706D-01 -0.247273D-01  0.730828D-01
               21            22            23            24            25 
     21  0.383103D+00
     22  0.000000D+00  0.383103D+00
     23  0.000000D+00  0.000000D+00  0.622567D+00
     24  0.000000D+00  0.000000D+00  0.347263D+00  0.739114D+00
     25  0.298018D+00  0.000000D+00  0.000000D+00  0.000000D+00  0.244385D+00
     26  0.000000D+00  0.298018D+00  0.000000D+00  0.000000D+00  0.000000D+00
     27  0.000000D+00  0.000000D+00  0.287876D+00  0.221224D+00  0.000000D+00
               26            27 
     26  0.244385D+00
     27  0.000000D+00  0.140336D+00
 
 Excited state symmetry could not be determined.
 Excited State   2:      Singlet-?Sym    6.9984 eV  177.16 nm  f=0.0000  <S**2>=0.000
       7 -> 11         0.36059
       7 -> 13         0.23827
       7 -> 16        -0.24895
       8 -> 10         0.36059
       8 -> 14         0.23827
       8 -> 17        -0.24895
 
 Excited state symmetry could not be determined.
 Excited State   3:      Singlet-?Sym    6.9984 eV  177.16 nm  f=0.0000  <S**2>=0.000
       7 -> 10        -0.36059
       7 -> 14        -0.23827
       7 -> 17         0.24895
       8 -> 11         0.36059
       8 -> 13         0.23827
       8 -> 16        -0.24895
 
 Excited state symmetry could not be determined.
 Excited State   4:      Singlet-?Sym    7.1186 eV  174.17 nm  f=0.0214  <S**2>=0.000
       8 ->  9         0.67129
       8 -> 12         0.17962
 
 Excited state symmetry could not be determined.
 Excited State   5:      Singlet-?Sym    7.1186 eV  174.17 nm  f=0.0214  <S**2>=0.000
       7 ->  9         0.67129
       7 -> 12         0.17962
 
 Excited State   6:      Singlet-SG     7.5082 eV  165.13 nm  f=0.0467  <S**2>=0.000
       5 ->  9         0.16203
       6 ->  9         0.66811
       6 -> 12         0.11524
 
 Excited state symmetry could not be determined.
 Excited State   7:      Singlet-?Sym    7.9716 eV  155.53 nm  f=0.0490  <S**2>=0.000
       6 -> 10        -0.33094
       6 -> 11         0.45372
       6 -> 13         0.25420
       6 -> 14        -0.18541
       6 -> 16        -0.19797
       6 -> 17         0.14440
 
 Excited state symmetry could not be determined.
 Excited State   8:      Singlet-?Sym    7.9716 eV  155.53 nm  f=0.0490  <S**2>=0.000
       6 -> 10         0.45372
       6 -> 11         0.33094
       6 -> 13         0.18541
       6 -> 14         0.25420
       6 -> 16        -0.14440
       6 -> 17        -0.19797
 
 Excited state symmetry could not be determined.
 Excited State   9:      Singlet-?Sym    8.6141 eV  143.93 nm  f=0.1891  <S**2>=0.000
       7 -> 10         0.49317
       8 -> 11         0.49317
 
 Excited state symmetry could not be determined.
 Excited State  10:      Singlet-?Sym    9.2695 eV  133.75 nm  f=0.0000  <S**2>=0.000
       7 -> 11        -0.37769
       7 -> 13         0.18504
       7 -> 16        -0.26597
       8 -> 10         0.37769
       8 -> 14        -0.18504
       8 -> 17         0.26597
 SavETr:  write IOETrn=   770 NScale= 10 NData=  16 NLR=1 LETran=     190.
 The selected state is a singlet
 Cannot handle 2e integral symmetry, ISym2E=1.
 CISAX:  IP=  1 NPass=   1 NMax=     1.
 CISAX will form     1 AO SS matrices at one time.
 NMat=     1 NSing=     1.
 FoFPCM: IWhat = 3 DoEle= T DoNuc= F Delta=T   Init=T Scale=  1.000000
         MinMlt= 0 MaxMlt= 0 DoP2C= F NMatP=  1 NVecW=  0 NTs=     434
 FoFPCM: IWhat = 4 DoEle= T DoNuc= F Delta=T   Init=F Scale=  1.000000
         MinMlt= 0 MaxMlt= 0 DoP2C= F NMatP=  0 NVecW=  1 NTs=     434
 Leave Link  914 at Fri May  6 18:44:49 2016, MaxMem=   62914560 cpu:       6.6
 (Enter /home/cammi/software/g09A02/g09/l1002.exe)
 Minotr:  Closed shell wavefunction.
          Computing CIS/TD-HF/TD-KS derivatives.
          Using Z-Vector for PSCF gradient.
          Skipping F1 and S1 gradient terms here.
 NEqPCM:  Using equilibrium solvation (IEInf=0, Eps=   2.0000, EpsInf=   1.0200)
          Frozen-core window.
          Direct CPHF calculation.
          Differentiating once with respect to electric field.
                with respect to dipole field.
          Electric field/nuclear overlap derivatives assumed to be zero.
          Requested convergence is 1.0D-10 RMS, and 1.0D-09 maximum.
          NewPWx=F KeepS1=T KeepF1=T KeepIn=T MapXYZ=F SortEE=F KeepMc=T.
          MDV=      62914532 using IRadAn=       0.
          Keep R1 ints in memory in canonical form, NReq=872164.
 Symmetry not used in FoFDir.
 MinBra= 0 MaxBra= 1 Meth= 1.
 IRaf=       0 NMat=   1 IRICut=       1 DoRegI=T DoRafI=F ISym2E= 0 JSym2E=0.
          Solving linear equations separately, MaxMat=       0.
          There are     1 degrees of freedom in the 1st order CPHF.  IDoFFX=0.
 LinEq1:  Iter=  0 NonCon=     1 RMS=2.33D-02 Max=1.08D-01
 AX will form     1 AO Fock derivatives at one time.
 LinEq1:  Iter=  1 NonCon=     1 RMS=9.77D-03 Max=4.71D-02
 LinEq1:  Iter=  2 NonCon=     1 RMS=4.56D-03 Max=2.10D-02
 LinEq1:  Iter=  3 NonCon=     1 RMS=5.50D-04 Max=3.25D-03
 LinEq1:  Iter=  4 NonCon=     1 RMS=5.11D-05 Max=2.89D-04
 LinEq1:  Iter=  5 NonCon=     1 RMS=4.06D-06 Max=1.76D-05
 LinEq1:  Iter=  6 NonCon=     1 RMS=2.82D-07 Max=1.19D-06
 LinEq1:  Iter=  7 NonCon=     1 RMS=3.50D-08 Max=1.51D-07
 LinEq1:  Iter=  8 NonCon=     1 RMS=2.80D-09 Max=1.19D-08
 LinEq1:  Iter=  9 NonCon=     1 RMS=3.51D-10 Max=1.57D-09
 LinEq1:  Iter= 10 NonCon=     0 RMS=3.20D-11 Max=1.42D-10
 Linear equations converged to 1.000D-10 1.000D-09 after    10 iterations.
 End of Minotr Frequency-dependent properties file   721 does not exist.
 End of Minotr Frequency-dependent properties file   722 does not exist.
 Leave Link 1002 at Fri May  6 18:44:50 2016, MaxMem=   62914560 cpu:       1.0
 (Enter /home/cammi/software/g09A02/g09/l601.exe)
 Copying SCF densities to generalized density rwf, IOpCl= 0 IROHF=0.

 **********************************************************************

            Population analysis using the CI one-particle density.

 **********************************************************************

 Orbital symmetries:
       Occupied  (SG) (SG) (SG) (SG) (SG) (SG) (PI) (PI)
       Virtual   (SG) (PI) (PI) (SG) (PI) (PI) (SG) (PI) (PI) (SG)
                 (SG) (PI) (PI) (SG) (PI) (PI) (SG) (SG) (SG)
 The electronic state is 1-SG.
 Alpha  occ. eigenvalues --  -15.50823 -11.17434  -2.49196  -1.16543  -0.54055
 Alpha  occ. eigenvalues --   -0.43115  -0.39927  -0.39927
 Alpha virt. eigenvalues --    0.00029   0.05543   0.05543   0.12702   0.18883
 Alpha virt. eigenvalues --    0.18883   0.19051   0.32634   0.32634   0.37466
 Alpha virt. eigenvalues --    0.70158   0.88329   0.88329   0.92757   1.14694
 Alpha virt. eigenvalues --    1.14694   1.25413   1.32789   1.80002
          Condensed to atoms (all electrons):
              1          2          3
     1  Li   2.376649   0.330601  -0.025122
     2  C    0.330601   5.342194   0.428581
     3  N   -0.025122   0.428581   6.813036
 Mulliken atomic charges:
              1
     1  Li   0.317872
     2  C   -0.101376
     3  N   -0.216495
 Sum of Mulliken atomic charges =   0.00000
 Mulliken charges with hydrogens summed into heavy atoms:
              1
     1  Li   0.317872
     2  C   -0.101376
     3  N   -0.216495
 Sum of Mulliken charges with hydrogens summed into heavy atoms =   0.00000
 Electronic spatial extent (au):  <R**2>=            102.2101
 Charge=              0.0000 electrons
 Dipole moment (field-independent basis, Debye):
    X=              0.0000    Y=              0.0000    Z=             -5.1769  Tot=              5.1769
 Quadrupole moment (field-independent basis, Debye-Ang):
   XX=            -17.0098   YY=            -17.0098   ZZ=             -5.8952
   XY=              0.0000   XZ=              0.0000   YZ=              0.0000
 Traceless Quadrupole moment (field-independent basis, Debye-Ang):
   XX=             -3.7049   YY=             -3.7049   ZZ=              7.4097
   XY=              0.0000   XZ=              0.0000   YZ=              0.0000
 Octapole moment (field-independent basis, Debye-Ang**2):
  XXX=              0.0000  YYY=              0.0000  ZZZ=            -33.2952  XYY=              0.0000
  XXY=              0.0000  XXZ=              4.6252  XZZ=              0.0000  YZZ=              0.0000
  YYZ=              4.6252  XYZ=              0.0000
 Hexadecapole moment (field-independent basis, Debye-Ang**3):
 XXXX=            -34.6139 YYYY=            -34.6139 ZZZZ=            -60.0212 XXXY=              0.0000
 XXXZ=              0.0000 YYYX=              0.0000 YYYZ=              0.0000 ZZZX=              0.0000
 ZZZY=              0.0000 XXYY=            -11.5380 XXZZ=            -32.3411 YYZZ=            -32.3411
 XXYZ=              0.0000 YYXZ=              0.0000 ZZXY=              0.0000
 N-N= 2.784820542189D+01 E-N=-2.886438674712D+02  KE= 9.957111599941D+01
 Symmetry A1   KE= 9.457502603395D+01
 Symmetry A2   KE= 0.000000000000D+00
 Symmetry B1   KE= 2.498044982727D+00
 Symmetry B2   KE= 2.498044982727D+00
 No NMR shielding tensors so no spin-rotation constants.
 Leave Link  601 at Fri May  6 18:44:51 2016, MaxMem=   62914560 cpu:       0.3
 (Enter /home/cammi/software/g09A02/g09/l9999.exe)

 Test job not archived.
 1\1\GINC-SIRIO\SP\RCIS-FC\6-31G\C1Li1N1\CAMMI\06-May-2016\0\\#p cis=(r
 oot=1,nstates=10,alltransitiondensities)/6-31G density=rhoci iop(9/33=
 1) scrf=(iefpcm,read)\\LiCN 6-31G(d)\\0,1\Li,0,0.,0.,-2.085506\C,0,0.,
 0.,-0.136506\N,0,0.,0.,1.010794\\Version=AM64L-G09RevA.02\State=1-SG\H
 F=-99.7318258\RMSD=4.516e-09\PG=C*V [C*(Li1C1N1)]\\@


 I FIND THAT THE THREE TRULY GREAT TIMES FOR THINKING THOUGHTS
 ARE WHEN I AM STANDING IN THE SHOWER, SITTING ON THE JOHN, OR WALKING.

                                    -- COLIN FLETCHER
 Job cpu time:  0 days  0 hours  0 minutes 12.7 seconds.
 File lengths (MBytes):  RWF=      9 Int=      0 D2E=      0 Chk=      3 Scr=      1
 Normal termination of Gaussian 09 at Fri May  6 18:44:51 2016.
